
                                 *****************
                                 * O   R   C   A *
                                 *****************

           --- An Ab Initio, DFT and Semiempirical electronic structure package ---

                  #######################################################
                  #                        -***-                        #
                  #          Department of theory and spectroscopy      #
                  #               Directorship: Frank Neese             #
                  #        Max Planck Institute fuer Kohlenforschung    #
                  #                Kaiser Wilhelm Platz 1               #
                  #                 D-45470 Muelheim/Ruhr               #
                  #                      Germany                        #
                  #                                                     #
                  #                  All rights reserved                #
                  #                        -***-                        #
                  #######################################################


                         Program Version 4.2.1 -  RELEASE  -


 With contributions from (in alphabetic order):
   Daniel Aravena         : Magnetic Suceptibility
   Michael Atanasov       : Ab Initio Ligand Field Theory (pilot matlab implementation)
   Alexander A. Auer      : GIAO ZORA, VPT2
   Ute Becker             : Parallelization
   Giovanni Bistoni       : ED, misc. LED, open-shell LED, HFLD
   Martin Brehm           : Molecular dynamics
   Dmytro Bykov           : SCF Hessian
   Vijay G. Chilkuri      : MRCI spin determinant printing, contributions to CSF-ICE
   Dipayan Datta          : RHF DLPNO-CCSD density
   Achintya Kumar Dutta   : EOM-CC, STEOM-CC
   Dmitry Ganyushin       : Spin-Orbit,Spin-Spin,Magnetic field MRCI
   Miquel Garcia          : C-PCM Hessian, Gaussian charge scheme
   Yang Guo               : DLPNO-NEVPT2, CIM, IAO-localization
   Andreas Hansen         : Spin unrestricted coupled pair/coupled cluster methods
   Benjamin Helmich-Paris : CASSCF linear response (MC-RPA)
   Lee Huntington         : MR-EOM, pCC
   Robert Izsak           : Overlap fitted RIJCOSX, COSX-SCS-MP3, EOM
   Christian Kollmar      : KDIIS, OOCD, Brueckner-CCSD(T), CCSD density
   Simone Kossmann        : Meta GGA functionals, TD-DFT gradient, OOMP2, MP2 Hessian
   Martin Krupicka        : AUTO-CI
   Lucas Lang             : DCDCAS
   Dagmar Lenk            : GEPOL surface, SMD
   Dimitrios Liakos       : Extrapolation schemes; Compound Job, initial MDCI parallelization
   Dimitrios Manganas     : Further ROCIS development; embedding schemes
   Dimitrios Pantazis     : SARC Basis sets
   Taras Petrenko         : DFT Hessian,TD-DFT gradient, ASA, ECA, R-Raman, ABS, FL, XAS/XES, NRVS
   Peter Pinski           : DLPNO-MP2, DLPNO-MP2 Gradient
   Christoph Reimann      : Effective Core Potentials
   Marius Retegan         : Local ZFS, SOC
   Christoph Riplinger    : Optimizer, TS searches, QM/MM, DLPNO-CCSD(T), (RO)-DLPNO pert. Triples
   Tobias Risthaus        : Range-separated hybrids, TD-DFT gradient, RPA, STAB
   Michael Roemelt        : Original ROCIS implementation
   Masaaki Saitow         : Open-shell DLPNO-CCSD energy and density
   Barbara Sandhoefer     : DKH picture change effects
   Avijit Sen             : IP-ROCIS
   Kantharuban Sivalingam : CASSCF convergence, NEVPT2, FIC-MRCI
   Bernardo de Souza      : ESD, SOC TD-DFT
   Georgi Stoychev        : AutoAux, RI-MP2 NMR
   Willem Van den Heuvel  : Paramagnetic NMR
   Boris Wezisla          : Elementary symmetry handling
   Frank Wennmohs         : Technical directorship


 We gratefully acknowledge several colleagues who have allowed us to
 interface, adapt or use parts of their codes:
   Stefan Grimme, W. Hujo, H. Kruse,             : VdW corrections, initial TS optimization,
                  C. Bannwarth                     DFT functionals, gCP, sTDA/sTD-DF
   Ed Valeev, F. Pavosevic, A. Kumar             : LibInt (2-el integral package), F12 methods
   Garnet Chan, S. Sharma, J. Yang, R. Olivares  : DMRG
   Ulf Ekstrom                                   : XCFun DFT Library
   Mihaly Kallay                                 : mrcc  (arbitrary order and MRCC methods)
   Andreas Klamt, Michael Diedenhofen            : otool_cosmo (COSMO solvation model)
   Jiri Pittner, Ondrej Demel                    : Mk-CCSD
   Frank Weinhold                                : gennbo (NPA and NBO analysis)
   Christopher J. Cramer and Donald G. Truhlar   : smd solvation model
   Lars Goerigk                                  : TD-DFT with DH, B97 family of functionals
   V. Asgeirsson, H. Jonsson                     : NEB implementation
   FAccTs GmbH                                   : IRC, NEB, NEB-TS, Multilevel, MM, QM/MM, CI optimization
   S Lehtola, MJT Oliveira, MAL Marques          : LibXC Library


 Your calculation uses the libint2 library for the computation of 2-el integrals
 For citations please refer to: http://libint.valeyev.net

 Your ORCA version has been built with support for libXC version: 4.2.3
 For citations please refer to: https://tddft.org/programs/libxc/

 This ORCA versions uses:
   CBLAS   interface :  Fast vector & matrix operations
   LAPACKE interface :  Fast linear algebra routines
   SCALAPACK package :  Parallel linear algebra routines


----- Orbital basis set information -----
Your calculation utilizes the basis: def2-TZVPP
   F. Weigend and R. Ahlrichs, Phys. Chem. Chem. Phys. 7, 3297 (2005).

================================================================================
                                        WARNINGS
                       Please study these warnings very carefully!
================================================================================


INFO   : the flag for use of LIBINT has been found!

================================================================================
                                       INPUT FILE
================================================================================
NAME = feco5.inp
|  1> ! DFT B3LYP def2-TZVPP TightSCF Grid5 NoFinalGrid SlowConv
|  2> %pal
|  3> nprocs 8
|  4> end
|  5> %method SpecialGridAtoms 26
|  6> SpecialGridIntAcc 7
|  7> end
|  8> %basis NewGTO 26 "CP(PPP)" end
|  9> end
| 10> * xyz 0 1
| 11> Fe 0.006906  0.000706 -0.000006
| 12> C  1.813821 -0.001302 -0.001041
| 13> C -0.983320  1.516294  0.000213
| 14> C -0.981646 -1.516205  0.000956
| 15> C  0.076814  0.000959 -1.815825
| 16> C  0.077244  0.001856  1.815607
| 17> O  2.970190 -0.002554 -0.001386
| 18> O -1.640297  2.467354  0.000415
| 19> O -1.638062 -2.467624  0.001058
| 20> O  0.150834  0.001048 -2.964200
| 21> O  0.147516 -0.000532  2.964209
| 22> *
| 23> # Note that the EPR block needs to below the coordinate block for the “all Fe” command (all irons) to be recognized. 
| 24> %eprnmr nuclei = all Fe {rho, fgrad}
| 25> end
| 26> 
| 27>                          ****END OF INPUT****
================================================================================

                       ****************************
                       * Single Point Calculation *
                       ****************************

---------------------------------
CARTESIAN COORDINATES (ANGSTROEM)
---------------------------------
  Fe     0.006906    0.000706   -0.000006
  C      1.813821   -0.001302   -0.001041
  C     -0.983320    1.516294    0.000213
  C     -0.981646   -1.516205    0.000956
  C      0.076814    0.000959   -1.815825
  C      0.077244    0.001856    1.815607
  O      2.970190   -0.002554   -0.001386
  O     -1.640297    2.467354    0.000415
  O     -1.638062   -2.467624    0.001058
  O      0.150834    0.001048   -2.964200
  O      0.147516   -0.000532    2.964209

----------------------------
CARTESIAN COORDINATES (A.U.)
----------------------------
  NO LB      ZA    FRAG     MASS         X           Y           Z
   0 Fe   26.0000    0    55.850    0.013050    0.001334   -0.000011
   1 C     6.0000    0    12.011    3.427625   -0.002460   -0.001967
   2 C     6.0000    0    12.011   -1.858206    2.865380    0.000403
   3 C     6.0000    0    12.011   -1.855042   -2.865212    0.001807
   4 C     6.0000    0    12.011    0.145157    0.001812   -3.431412
   5 C     6.0000    0    12.011    0.145970    0.003507    3.431000
   6 O     8.0000    0    15.999    5.612846   -0.004826   -0.002619
   7 O     8.0000    0    15.999   -3.099712    4.662623    0.000784
   8 O     8.0000    0    15.999   -3.095489   -4.663134    0.001999
   9 O     8.0000    0    15.999    0.285035    0.001980   -5.601526
  10 O     8.0000    0    15.999    0.278765   -0.001005    5.601543

--------------------------------
INTERNAL COORDINATES (ANGSTROEM)
--------------------------------
 Fe     0   0   0     0.000000000000     0.00000000     0.00000000
 C      1   0   0     1.806916412155     0.00000000     0.00000000
 C      1   2   0     1.810401768885   123.22270273     0.00000000
 C      1   2   3     1.810595196080   123.02812376   180.00176443
 C      1   2   3     1.817164228471    87.76242520    89.97635581
 C      1   2   3     1.816975322483    87.81429570   270.02554712
 O      2   1   3     1.156369729235   179.98419001    84.06670984
 O      3   1   2     1.155912601771   178.52293462   180.08495120
 O      4   1   2     1.155889306561   178.48847248   180.98139662
 O      5   1   2     1.150758058388   178.51678980     0.07285646
 O      6   1   2     1.150752106638   178.70819543   353.16633285

---------------------------
INTERNAL COORDINATES (A.U.)
---------------------------
 Fe     0   0   0     0.000000000000     0.00000000     0.00000000
 C      1   0   0     3.414577165860     0.00000000     0.00000000
 C      1   2   0     3.421163535559   123.22270273     0.00000000
 C      1   2   3     3.421529059985   123.02812376   180.00176443
 C      1   2   3     3.433942732168    87.76242520    89.97635581
 C      1   2   3     3.433585751587    87.81429570   270.02554712
 O      2   1   3     2.185222097810   179.98419001    84.06670984
 O      3   1   2     2.184358252096   178.52293462   180.08495120
 O      4   1   2     2.184314230528   178.48847248   180.98139662
 O      5   1   2     2.174617576757   178.51678980     0.07285646
 O      6   1   2     2.174606329579   178.70819543   353.16633285

---------------------
BASIS SET INFORMATION
---------------------
There are 3 groups of distinct atoms

 Group   1 Type Fe  : 17s11p5d1f contracted to 17s7p3d1f pattern {11111111111111111/3311111/311/1}
 Group   2 Type C   : 11s6p2d1f contracted to 5s3p2d1f pattern {62111/411/11/1}
 Group   3 Type O   : 11s6p2d1f contracted to 5s3p2d1f pattern {62111/411/11/1}

Atom   0Fe   basis set group =>   1
Atom   1C    basis set group =>   2
Atom   2C    basis set group =>   2
Atom   3C    basis set group =>   2
Atom   4C    basis set group =>   2
Atom   5C    basis set group =>   2
Atom   6O    basis set group =>   3
Atom   7O    basis set group =>   3
Atom   8O    basis set group =>   3
Atom   9O    basis set group =>   3
Atom  10O    basis set group =>   3


           ************************************************************
           *        Program running with 8 parallel MPI-processes     *
           *              working on a common directory               *
           ************************************************************
------------------------------------------------------------------------------
                           ORCA GTO INTEGRAL CALCULATION
------------------------------------------------------------------------------

                         BASIS SET STATISTICS AND STARTUP INFO

 # of primitive gaussian shells          ...  234
 # of primitive gaussian functions       ...  542
 # of contracted shells                  ...  138
 # of contracted basis functions         ...  370
 Highest angular momentum                ...    3
 Maximum contraction depth               ...    6
 Integral package used                   ... LIBINT
 Integral threshhold            Thresh   ...  2.500e-11
 Primitive cut-off              TCut     ...  2.500e-12


------------------------------ INTEGRAL EVALUATION ----------------------------


 * One electron integrals 
 Pre-screening matrix                    ... done
 Shell pair data                         ... done (   0.004 sec)



           ************************************************************
           *        Program running with 8 parallel MPI-processes     *
           *              working on a common directory               *
           ************************************************************
-------------------------------------------------------------------------------
                                 ORCA SCF
-------------------------------------------------------------------------------

------------
SCF SETTINGS
------------
Hamiltonian:
 Density Functional     Method          .... DFT(GTOs)
 Exchange Functional    Exchange        .... B88
   X-Alpha parameter    XAlpha          ....  0.666667
   Becke's b parameter  XBeta           ....  0.004200
 Correlation Functional Correlation     .... LYP
 LDA part of GGA corr.  LDAOpt          .... VWN-5
 Gradients option       PostSCFGGA      .... off
 Hybrid DFT is turned on
   Fraction HF Exchange ScalHFX         ....  0.200000
   Scaling of DF-GGA-X  ScalDFX         ....  0.720000
   Scaling of DF-GGA-C  ScalDFC         ....  0.810000
   Scaling of DF-LDA-C  ScalLDAC        ....  1.000000
   Perturbative correction              ....  0.000000
   Density functional embedding theory  .... OFF
   NL short-range parameter             ....  4.800000


General Settings:
 Integral files         IntName         .... feco5
 Hartree-Fock type      HFTyp           .... RHF
 Total Charge           Charge          ....    0
 Multiplicity           Mult            ....    1
 Number of Electrons    NEL             ....   96
 Basis Dimension        Dim             ....  370
 Nuclear Repulsion      ENuc            ....    800.1813791526 Eh

Convergence Acceleration:
 DIIS                   CNVDIIS         .... on
   Start iteration      DIISMaxIt       ....     0
   Startup error        DIISStart       ....  0.200000
   # of expansion vecs  DIISMaxEq       ....     5
   Bias factor          DIISBfac        ....   1.050
   Max. coefficient     DIISMaxC        ....  10.000
 Newton-Raphson         CNVNR           .... off
 SOSCF                  CNVSOSCF        .... off
 Level Shifting         CNVShift        .... on
   Level shift para.    LevelShift      ....    0.2500
   Turn off err/grad.   ShiftErr        ....    0.0000
 Zerner damping         CNVZerner       .... off
 Static damping         CNVDamp         .... on
   Fraction old density DampFac         ....    0.8500
   Max. Damping (<1)    DampMax         ....    0.9800
   Min. Damping (>=0)   DampMin         ....    0.0000
   Turn off err/grad.   DampErr         ....    0.0300
 Fernandez-Rico         CNVRico         .... off

SCF Procedure:
 Maximum # iterations   MaxIter         ....   125
 SCF integral mode      SCFMode         .... Direct
   Integral package                     .... LIBINT
 Reset frequency        DirectResetFreq ....    20
 Integral Threshold     Thresh          ....  2.500e-11 Eh
 Primitive CutOff       TCut            ....  2.500e-12 Eh

Convergence Tolerance:
 Convergence Check Mode ConvCheckMode   .... Total+1el-Energy
 Convergence forced     ConvForced      .... 0
 Energy Change          TolE            ....  1.000e-08 Eh
 1-El. energy change                    ....  1.000e-05 Eh
 DIIS Error             TolErr          ....  5.000e-07


Diagonalization of the overlap matrix:
Smallest eigenvalue                        ... 5.916e-04
Time for diagonalization                   ...    0.031 sec
Threshold for overlap eigenvalues          ... 1.000e-08
Number of eigenvalues below threshold      ... 0
Time for construction of square roots      ...    0.014 sec
Total time needed                          ...    0.047 sec

-------------------
DFT GRID GENERATION
-------------------

General Integration Accuracy     IntAcc      ...  5.010
Radial Grid Type                 RadialGrid  ... Gauss-Chebyshev
Angular Grid (max. acc.)         AngularGrid ... Lebedev-434
Angular grid pruning method      GridPruning ... 3 (G Style)
Weight generation scheme         WeightScheme... Becke
Basis function cutoff            BFCut       ...    1.0000e-11
Integration weight cutoff        WCut        ...    1.0000e-14
Grids for H and He will be reduced by one unit

SpecialGrid => Setting IntAcc for atom type =  26 to   7.0000
# of grid points (after initial pruning)     ... 132266 (   0.0 sec)
# of grid points (after weights+screening)   ... 124790 (   0.1 sec)
nearest neighbour list constructed           ...    0.0 sec
Grid point re-assignment to atoms done       ...    0.0 sec
Grid point division into batches done        ...    1.2 sec
Reduced shell lists constructed in    1.4 sec

Total number of grid points                  ...   124790
Total number of batches                      ...     1957
Average number of points per batch           ...       63
Average number of grid points per atom       ...    11345
Average number of shells per batch           ...    88.96 (64.46%)
Average number of basis functions per batch  ...   257.76 (69.67%)
Average number of large shells per batch     ...    72.83 (81.87%)
Average number of large basis fcns per batch ...   210.33 (81.60%)
Maximum spatial batch extension              ...   1.80,  3.44,  3.54 au
Average spatial batch extension              ...   0.09,  0.10,  0.10 au

Time for grid setup =    1.559 sec

------------------------------
INITIAL GUESS: MODEL POTENTIAL
------------------------------
Loading Hartree-Fock densities                     ... done
Calculating cut-offs                               ... done
Setting up the integral package                    ... done
Initializing the effective Hamiltonian             ... done
Starting the Coulomb interaction                   ... done (   0.0 sec)
Reading the grid                                   ... done
Mapping shells                                     ... done
Starting the XC term evaluation                    ... done (   0.3 sec)
  promolecular density results
     # of electrons  =     96.000017734
     EX              =   -121.005421981
     EC              =     -3.702801993
     EX+EC           =   -124.708223974
Transforming the Hamiltonian                       ... done (   0.0 sec)
Diagonalizing the Hamiltonian                      ... done (   0.0 sec)
Back transforming the eigenvectors                 ... done (   0.0 sec)
Now organizing SCF variables                       ... done
                      ------------------
                      INITIAL GUESS DONE (   2.0 sec)
                      ------------------
--------------
SCF ITERATIONS
--------------
ITER       Energy         Delta-E        Max-DP      RMS-DP      [F,P]     Damp
               ***  Starting incremental Fock matrix formation  ***
  0  -1830.1673048264   0.000000000000 0.01888212  0.00031066  0.5061991 0.8500
  1  -1830.2230958600  -0.055791033609 0.01594929  0.00028163  0.4305213 0.8500
                               ***Turning on DIIS***
  2  -1830.2518973769  -0.028801516959 0.01025494  0.00020668  0.3660941 0.8500
  3  -1830.2694475937  -0.017550216740 0.00862945  0.00012406  0.3112830 0.8500
  4  -1830.2832098196  -0.013762225920 0.00684503  0.00008177  0.2647010 0.8500
  5  -1830.2936782190  -0.010468399437 0.00634073  0.00006353  0.2250309 0.8500
  6  -1830.3027987713  -0.009120552321 0.00518309  0.00005389  0.1912152 0.8500
  7  -1830.3105788773  -0.007780105998 0.00459236  0.00005151  0.1625128 0.8500
  8  -1830.3172148435  -0.006635966147 0.00398418  0.00004307  0.1381194 0.8500
  9  -1830.3227128621  -0.005498018617 0.00334685  0.00003598  0.1174176 0.8500
 10  -1830.3272795155  -0.004566653351 0.00300177  0.00003122  0.0998257 0.8500
 11  -1830.3311630815  -0.003883566059 0.00237304  0.00002606  0.0848450 0.8500
 12  -1830.3344573213  -0.003294239749 0.00208115  0.00002257  0.0721200 0.8500
 13  -1830.3372418415  -0.002784520266 0.00178201  0.00001900  0.0612966 0.8500
 14  -1830.3395882126  -0.002346371093 0.00150765  0.00001601  0.0521040 0.8500
 15  -1830.3415701321  -0.001981919433 0.00131875  0.00001385  0.0442923 0.8500
 16  -1830.3432523556  -0.001682223553 0.00106378  0.00001162  0.0376471 0.8500
 17  -1830.3446791839  -0.001426828292 0.00094407  0.00001006  0.0320018 0.8500
 18  -1830.3458893167  -0.001210132796 0.00529342  0.00005639  0.0271996 0.0000
 19  -1830.3526920251  -0.006802708378 0.00009572  0.00000200  0.0001326 0.0000
               *** Restarting incremental Fock matrix formation ***
                                   *** Resetting DIIS ***
 20  -1830.3526920984  -0.000000073287 0.00023849  0.00000337  0.0003392 0.0000
 21  -1830.3526896598   0.000002438542 0.00012530  0.00000150  0.0015869 0.0000
 22  -1830.3526918169  -0.000002157128 0.00005048  0.00000072  0.0006103 0.0000
 23  -1830.3526922146  -0.000000397689 0.00002695  0.00000040  0.0002351 0.0000
 24  -1830.3526922870  -0.000000072368 0.00001478  0.00000023  0.0000642 0.0000
 25  -1830.3526922949  -0.000000007850 0.00000521  0.00000011  0.0000146 0.0000
 26  -1830.3526922976  -0.000000002792 0.00000333  0.00000007  0.0000146 0.0000
 27  -1830.3526922924   0.000000005231 0.00000216  0.00000005  0.0000066 0.0000
 28  -1830.3526922880   0.000000004388 0.00000247  0.00000003  0.0000015 0.0000
 29  -1830.3526922829   0.000000005092 0.00000128  0.00000002  0.0000019 0.0000
 30  -1830.3526922828   0.000000000085 0.00000289  0.00000002  0.0000013 0.0000
                 **** Energy Check signals convergence ****

               *****************************************************
               *                     SUCCESS                       *
               *           SCF CONVERGED AFTER  31 CYCLES          *
               *****************************************************


----------------
TOTAL SCF ENERGY
----------------

Total Energy       :        -1830.35269228 Eh          -49806.42887 eV

Components:
Nuclear Repulsion  :          800.18137915 Eh           21774.04230 eV
Electronic Energy  :        -2630.53407143 Eh          -71580.47116 eV
One Electron Energy:        -4111.27034308 Eh         -111873.35357 eV
Two Electron Energy:         1480.73627165 Eh           40292.88240 eV

Virial components:
Potential Energy   :        -3656.68067951 Eh          -99503.33994 eV
Kinetic Energy     :         1826.32798723 Eh           49696.91107 eV
Virial Ratio       :            2.00220371


DFT components:
N(Alpha)           :       47.999999892964 electrons
N(Beta)            :       47.999999892964 electrons
N(Total)           :       95.999999785928 electrons
E(X)               :      -96.506110906261 Eh       
E(C)               :       -4.344249224472 Eh       
E(XC)              :     -100.850360130733 Eh       
DFET-embed. en.    :        0.000000000000 Eh       

---------------
SCF CONVERGENCE
---------------

  Last Energy change         ...    4.7285e-09  Tolerance :   1.0000e-08
  Last MAX-Density change    ...    2.9192e-07  Tolerance :   1.0000e-07
  Last RMS-Density change    ...    5.9438e-09  Tolerance :   5.0000e-09
  Last DIIS Error            ...    3.6378e-07  Tolerance :   5.0000e-07

             **** THE GBW FILE WAS UPDATED (feco5.gbw) ****
             **** DENSITY FILE WAS UPDATED (feco5.scfp) ****
             **** ENERGY FILE WAS UPDATED (feco5.en.tmp) ****
             **** THE GBW FILE WAS UPDATED (feco5.gbw) ****
             **** DENSITY FILE WAS UPDATED (feco5.scfp) ****
----------------
ORBITAL ENERGIES
----------------

  NO   OCC          E(Eh)            E(eV) 
   0   2.0000    -256.107196     -6969.0311 
   1   2.0000     -30.071787      -818.2949 
   2   2.0000     -25.942261      -705.9248 
   3   2.0000     -25.928533      -705.5512 
   4   2.0000     -25.925901      -705.4796 
   5   2.0000     -19.235577      -523.4267 
   6   2.0000     -19.235565      -523.4263 
   7   2.0000     -19.220461      -523.0153 
   8   2.0000     -19.220423      -523.0143 
   9   2.0000     -19.219627      -522.9926 
  10   2.0000     -10.326985      -281.0116 
  11   2.0000     -10.326970      -281.0111 
  12   2.0000     -10.312361      -280.6136 
  13   2.0000     -10.312182      -280.6087 
  14   2.0000     -10.312161      -280.6082 
  15   2.0000      -3.487278       -94.8937 
  16   2.0000      -2.276471       -61.9459 
  17   2.0000      -2.253477       -61.3202 
  18   2.0000      -2.248059       -61.1728 
  19   2.0000      -1.163215       -31.6527 
  20   2.0000      -1.163086       -31.6492 
  21   2.0000      -1.145714       -31.1765 
  22   2.0000      -1.145573       -31.1726 
  23   2.0000      -1.144936       -31.1553 
  24   2.0000      -0.636181       -17.3114 
  25   2.0000      -0.594010       -16.1638 
  26   2.0000      -0.582841       -15.8599 
  27   2.0000      -0.581892       -15.8341 
  28   2.0000      -0.579205       -15.7610 
  29   2.0000      -0.522992       -14.2313 
  30   2.0000      -0.501069       -13.6348 
  31   2.0000      -0.497292       -13.5320 
  32   2.0000      -0.494036       -13.4434 
  33   2.0000      -0.492038       -13.3890 
  34   2.0000      -0.490716       -13.3531 
  35   2.0000      -0.475827       -12.9479 
  36   2.0000      -0.474047       -12.8995 
  37   2.0000      -0.468185       -12.7400 
  38   2.0000      -0.465450       -12.6655 
  39   2.0000      -0.465316       -12.6619 
  40   2.0000      -0.463738       -12.6190 
  41   2.0000      -0.455479       -12.3942 
  42   2.0000      -0.452165       -12.3040 
  43   2.0000      -0.434769       -11.8307 
  44   2.0000      -0.317483        -8.6392 
  45   2.0000      -0.313821        -8.5395 
  46   2.0000      -0.262874        -7.1532 
  47   2.0000      -0.254684        -6.9303 
  48   0.0000      -0.059071        -1.6074 
  49   0.0000      -0.054258        -1.4764 
  50   0.0000      -0.048210        -1.3119 
  51   0.0000      -0.046553        -1.2668 
  52   0.0000      -0.041022        -1.1163 
  53   0.0000      -0.037013        -1.0072 
  54   0.0000      -0.036354        -0.9892 
  55   0.0000      -0.027988        -0.7616 
  56   0.0000      -0.022694        -0.6175 
  57   0.0000       0.000363         0.0099 
  58   0.0000       0.010615         0.2889 
  59   0.0000       0.010923         0.2972 
  60   0.0000       0.042516         1.1569 
  61   0.0000       0.046113         1.2548 
  62   0.0000       0.048133         1.3098 
  63   0.0000       0.151640         4.1263 
  64   0.0000       0.155861         4.2412 
  65   0.0000       0.161793         4.4026 
  66   0.0000       0.210133         5.7180 
  67   0.0000       0.212119         5.7721 
  68   0.0000       0.214757         5.8438 
  69   0.0000       0.229641         6.2488 
  70   0.0000       0.252107         6.8602 
  71   0.0000       0.266040         7.2393 
  72   0.0000       0.268921         7.3177 
  73   0.0000       0.282259         7.6807 
  74   0.0000       0.286256         7.7894 
  75   0.0000       0.288379         7.8472 
  76   0.0000       0.295318         8.0360 
  77   0.0000       0.296862         8.0780 
  78   0.0000       0.307859         8.3773 
  79   0.0000       0.335857         9.1391 
  80   0.0000       0.351187         9.5563 
  81   0.0000       0.351408         9.5623 
  82   0.0000       0.390917        10.6374 
  83   0.0000       0.393694        10.7130 
  84   0.0000       0.399568        10.8728 
  85   0.0000       0.418019        11.3749 
  86   0.0000       0.429169        11.6783 
  87   0.0000       0.450422        12.2566 
  88   0.0000       0.462906        12.5963 
  89   0.0000       0.466937        12.7060 
  90   0.0000       0.469492        12.7755 
  91   0.0000       0.479859        13.0576 
  92   0.0000       0.502219        13.6661 
  93   0.0000       0.516218        14.0470 
  94   0.0000       0.526990        14.3401 
  95   0.0000       0.530979        14.4487 
  96   0.0000       0.560552        15.2534 
  97   0.0000       0.563977        15.3466 
  98   0.0000       0.573740        15.6122 
  99   0.0000       0.577369        15.7110 
 100   0.0000       0.597624        16.2622 
 101   0.0000       0.605170        16.4675 
 102   0.0000       0.609431        16.5835 
 103   0.0000       0.618090        16.8191 
 104   0.0000       0.635286        17.2870 
 105   0.0000       0.639725        17.4078 
 106   0.0000       0.682777        18.5793 
 107   0.0000       0.686812        18.6891 
 108   0.0000       0.694109        18.8877 
 109   0.0000       0.714859        19.4523 
 110   0.0000       0.731037        19.8925 
 111   0.0000       0.733715        19.9654 
 112   0.0000       0.786360        21.3979 
 113   0.0000       0.798828        21.7372 
 114   0.0000       0.803559        21.8659 
 115   0.0000       0.818659        22.2768 
 116   0.0000       0.833428        22.6787 
 117   0.0000       0.842535        22.9265 
 118   0.0000       0.858942        23.3730 
 119   0.0000       0.872396        23.7391 
 120   0.0000       0.881426        23.9848 
 121   0.0000       0.894145        24.3309 
 122   0.0000       0.908366        24.7179 
 123   0.0000       0.918390        24.9907 
 124   0.0000       0.920620        25.0513 
 125   0.0000       0.953737        25.9525 
 126   0.0000       0.954997        25.9868 
 127   0.0000       1.126208        30.6457 
 128   0.0000       1.131474        30.7890 
 129   0.0000       1.170933        31.8627 
 130   0.0000       1.174599        31.9625 
 131   0.0000       1.182432        32.1756 
 132   0.0000       1.187315        32.3085 
 133   0.0000       1.244234        33.8573 
 134   0.0000       1.247732        33.9525 
 135   0.0000       1.253358        34.1056 
 136   0.0000       1.299300        35.3558 
 137   0.0000       1.334490        36.3133 
 138   0.0000       1.347865        36.6773 
 139   0.0000       1.361132        37.0383 
 140   0.0000       1.361440        37.0467 
 141   0.0000       1.375362        37.4255 
 142   0.0000       1.392230        37.8845 
 143   0.0000       1.401412        38.1343 
 144   0.0000       1.402415        38.1617 
 145   0.0000       1.404409        38.2159 
 146   0.0000       1.410989        38.3950 
 147   0.0000       1.414058        38.4785 
 148   0.0000       1.421359        38.6771 
 149   0.0000       1.461866        39.7794 
 150   0.0000       1.463208        39.8159 
 151   0.0000       1.485462        40.4215 
 152   0.0000       1.490639        40.5623 
 153   0.0000       1.502454        40.8839 
 154   0.0000       1.512825        41.1661 
 155   0.0000       1.530317        41.6421 
 156   0.0000       1.561203        42.4825 
 157   0.0000       1.573585        42.8194 
 158   0.0000       1.583476        43.0886 
 159   0.0000       1.612639        43.8821 
 160   0.0000       1.621323        44.1184 
 161   0.0000       1.633266        44.4434 
 162   0.0000       1.636298        44.5259 
 163   0.0000       1.643604        44.7247 
 164   0.0000       1.657539        45.1039 
 165   0.0000       1.671474        45.4831 
 166   0.0000       1.695889        46.1475 
 167   0.0000       1.700858        46.2827 
 168   0.0000       1.705670        46.4137 
 169   0.0000       1.806454        49.1561 
 170   0.0000       1.941004        52.8174 
 171   0.0000       1.956416        53.2368 
 172   0.0000       1.968030        53.5528 
 173   0.0000       1.984616        54.0041 
 174   0.0000       1.989255        54.1304 
 175   0.0000       2.000997        54.4499 
 176   0.0000       2.071286        56.3626 
 177   0.0000       2.074366        56.4464 
 178   0.0000       2.082296        56.6622 
 179   0.0000       2.092220        56.9322 
 180   0.0000       2.094993        57.0077 
 181   0.0000       2.199973        59.8643 
 182   0.0000       2.255735        61.3817 
 183   0.0000       2.259546        61.4854 
 184   0.0000       2.264377        61.6168 
 185   0.0000       2.272716        61.8438 
 186   0.0000       2.548279        69.3422 
 187   0.0000       2.576815        70.1187 
 188   0.0000       2.591366        70.5147 
 189   0.0000       2.597782        70.6892 
 190   0.0000       2.610288        71.0296 
 191   0.0000       2.610352        71.0313 
 192   0.0000       2.631171        71.5978 
 193   0.0000       2.647415        72.0398 
 194   0.0000       2.660813        72.4044 
 195   0.0000       2.661801        72.4313 
 196   0.0000       2.662761        72.4574 
 197   0.0000       2.670146        72.6584 
 198   0.0000       2.673319        72.7447 
 199   0.0000       2.700448        73.4829 
 200   0.0000       2.726123        74.1816 
 201   0.0000       2.729753        74.2804 
 202   0.0000       2.731407        74.3254 
 203   0.0000       2.746226        74.7286 
 204   0.0000       2.746955        74.7485 
 205   0.0000       2.757851        75.0449 
 206   0.0000       2.777440        75.5780 
 207   0.0000       2.777859        75.5894 
 208   0.0000       2.778567        75.6087 
 209   0.0000       2.779336        75.6296 
 210   0.0000       2.788615        75.8821 
 211   0.0000       2.790486        75.9330 
 212   0.0000       2.827410        76.9377 
 213   0.0000       2.840500        77.2939 
 214   0.0000       2.845883        77.4404 
 215   0.0000       2.851456        77.5921 
 216   0.0000       2.859605        77.8138 
 217   0.0000       2.895106        78.7798 
 218   0.0000       2.911204        79.2179 
 219   0.0000       2.937417        79.9312 
 220   0.0000       2.947579        80.2077 
 221   0.0000       2.957808        80.4861 
 222   0.0000       2.960948        80.5715 
 223   0.0000       2.979791        81.0842 
 224   0.0000       2.990366        81.3720 
 225   0.0000       3.013783        82.0092 
 226   0.0000       3.013818        82.0102 
 227   0.0000       3.025614        82.3312 
 228   0.0000       3.028173        82.4008 
 229   0.0000       3.031140        82.4815 
 230   0.0000       3.039260        82.7025 
 231   0.0000       3.042337        82.7862 
 232   0.0000       3.050370        83.0048 
 233   0.0000       3.075723        83.6947 
 234   0.0000       3.080364        83.8210 
 235   0.0000       3.081925        83.8635 
 236   0.0000       3.087095        84.0041 
 237   0.0000       3.111522        84.6688 
 238   0.0000       3.137036        85.3631 
 239   0.0000       3.140323        85.4525 
 240   0.0000       3.210831        87.3712 
 241   0.0000       3.240902        88.1894 
 242   0.0000       3.243089        88.2489 
 243   0.0000       3.265534        88.8597 
 244   0.0000       3.310233        90.0760 
 245   0.0000       3.315133        90.2093 
 246   0.0000       3.320741        90.3620 
 247   0.0000       3.327364        90.5422 
 248   0.0000       3.350140        91.1619 
 249   0.0000       3.354540        91.2817 
 250   0.0000       3.544000        96.4371 
 251   0.0000       3.556486        96.7769 
 252   0.0000       3.577348        97.3446 
 253   0.0000       3.602696        98.0343 
 254   0.0000       3.625320        98.6500 
 255   0.0000       3.644237        99.1647 
 256   0.0000       3.644369        99.1683 
 257   0.0000       3.735881       101.6585 
 258   0.0000       3.769215       102.5656 
 259   0.0000       3.782131       102.9170 
 260   0.0000       3.785746       103.0154 
 261   0.0000       3.837539       104.4247 
 262   0.0000       3.969140       108.0058 
 263   0.0000       3.970116       108.0324 
 264   0.0000       3.970324       108.0380 
 265   0.0000       4.018333       109.3444 
 266   0.0000       4.412360       120.0664 
 267   0.0000       4.417469       120.2054 
 268   0.0000       4.458588       121.3244 
 269   0.0000       4.580675       124.6465 
 270   0.0000       4.621963       125.7700 
 271   0.0000       5.067624       137.8970 
 272   0.0000       5.067659       137.8980 
 273   0.0000       5.069484       137.9477 
 274   0.0000       5.069753       137.9550 
 275   0.0000       5.080170       138.2384 
 276   0.0000       5.080541       138.2486 
 277   0.0000       5.080622       138.2508 
 278   0.0000       5.081169       138.2656 
 279   0.0000       5.081302       138.2693 
 280   0.0000       5.082999       138.3154 
 281   0.0000       5.364180       145.9668 
 282   0.0000       5.366081       146.0185 
 283   0.0000       5.412129       147.2715 
 284   0.0000       5.413184       147.3002 
 285   0.0000       5.438183       147.9805 
 286   0.0000       5.446026       148.1939 
 287   0.0000       5.446829       148.2158 
 288   0.0000       5.448018       148.2481 
 289   0.0000       5.460699       148.5932 
 290   0.0000       5.468642       148.8093 
 291   0.0000       5.549994       151.0230 
 292   0.0000       5.565433       151.4431 
 293   0.0000       5.692992       154.9142 
 294   0.0000       5.715600       155.5294 
 295   0.0000       5.922618       161.1626 
 296   0.0000       5.956139       162.0748 
 297   0.0000       5.967354       162.3800 
 298   0.0000       5.974799       162.5825 
 299   0.0000       6.017318       163.7395 
 300   0.0000       6.051899       164.6805 
 301   0.0000       6.125890       166.6940 
 302   0.0000       6.216865       169.1695 
 303   0.0000       6.217219       169.1791 
 304   0.0000       6.218853       169.2236 
 305   0.0000       6.219297       169.2357 
 306   0.0000       6.221462       169.2946 
 307   0.0000       6.227083       169.4475 
 308   0.0000       6.228355       169.4822 
 309   0.0000       6.233453       169.6209 
 310   0.0000       6.235573       169.6786 
 311   0.0000       6.240311       169.8075 
 312   0.0000       6.240599       169.8153 
 313   0.0000       6.245599       169.9514 
 314   0.0000       6.262630       170.4148 
 315   0.0000       6.265347       170.4888 
 316   0.0000       6.275710       170.7708 
 317   0.0000       6.303840       171.5362 
 318   0.0000       6.307831       171.6448 
 319   0.0000       6.321952       172.0290 
 320   0.0000       6.359699       173.0562 
 321   0.0000       6.371799       173.3855 
 322   0.0000       6.373794       173.4397 
 323   0.0000       6.513887       177.2519 
 324   0.0000       6.569994       178.7786 
 325   0.0000       6.575548       178.9298 
 326   0.0000       6.665756       181.3844 
 327   0.0000       6.693104       182.1286 
 328   0.0000       6.699445       182.3012 
 329   0.0000       6.704794       182.4467 
 330   0.0000       6.705946       182.4781 
 331   0.0000       6.711165       182.6201 
 332   0.0000       6.712524       182.6571 
 333   0.0000       6.715500       182.7380 
 334   0.0000       6.717646       182.7964 
 335   0.0000       6.725481       183.0096 
 336   0.0000       6.727343       183.0603 
 337   0.0000       6.736290       183.3038 
 338   0.0000       7.008722       190.7170 
 339   0.0000       7.029404       191.2798 
 340   0.0000       7.033733       191.3976 
 341   0.0000       7.036264       191.4665 
 342   0.0000       7.053612       191.9385 
 343   0.0000      10.298068       280.2247 
 344   0.0000      10.350735       281.6578 
 345   0.0000      10.396060       282.8912 
 346   0.0000      22.560680       613.9073 
 347   0.0000      22.578142       614.3825 
 348   0.0000      22.673748       616.9841 
 349   0.0000      22.747992       619.0043 
 350   0.0000      23.068714       627.7316 
 351   0.0000      26.124784       710.8915 
 352   0.0000      43.687444      1188.7958 
 353   0.0000      43.740067      1190.2277 
 354   0.0000      43.755384      1190.6445 
 355   0.0000      43.797446      1191.7891 
 356   0.0000      43.827500      1192.6069 
 357   0.0000     167.801558      4566.1125 
 358   0.0000     216.969111      5904.0297 
 359   0.0000     216.987921      5904.5415 
 360   0.0000     217.022435      5905.4807 
 361   0.0000     722.226303     19652.7768 
 362   0.0000    2454.522252     66790.9461 
 363   0.0000    8071.866781    219646.6617 
 364   0.0000   28473.971859    774816.1652 
 365   0.0000   117240.924297   3190287.7412 
 366   0.0000   597781.099023   16266450.6748 
 367   0.0000   2211674.839563   60182732.0155 
 368   0.0000   6563629.526913   178605439.5524 
 369   0.0000   18768449.242516   510715468.1616 

                    ********************************
                    * MULLIKEN POPULATION ANALYSIS *
                    ********************************

-----------------------
MULLIKEN ATOMIC CHARGES
-----------------------
   0 Fe:    0.391485
   1 C :   -0.006576
   2 C :   -0.004235
   3 C :   -0.004048
   4 C :   -0.003915
   5 C :   -0.003991
   6 O :   -0.079980
   7 O :   -0.077157
   8 O :   -0.077039
   9 O :   -0.067270
  10 O :   -0.067273
Sum of atomic charges:    0.0000000

--------------------------------
MULLIKEN REDUCED ORBITAL CHARGES
--------------------------------
  0 Fes       :     6.347657  s :     6.347657
      pz      :     4.102338  p :    12.723031
      px      :     4.302987
      py      :     4.317707
      dz2     :     0.751646  d :     6.537375
      dxz     :     1.501174
      dyz     :     1.516125
      dx2y2   :     1.409265
      dxy     :     1.359165
      f0      :     0.000158  f :     0.000451
      f+1     :     0.000067
      f-1     :     0.000063
      f+2     :     0.000009
      f-2     :     0.000009
      f+3     :     0.000127
      f-3     :     0.000020
  1 C s       :     3.509617  s :     3.509617
      pz      :     0.640589  p :     2.342648
      px      :     0.931019
      py      :     0.771040
      dz2     :     0.005271  d :     0.135302
      dxz     :     0.056560
      dyz     :     0.002448
      dx2y2   :     0.014021
      dxy     :     0.057003
      f0      :     0.002185  f :     0.019010
      f+1     :     0.002337
      f-1     :     0.000307
      f+2     :     0.004112
      f-2     :     0.000161
      f+3     :     0.004010
      f-3     :     0.005896
  2 C s       :     3.523889  s :     3.523889
      pz      :     0.647727  p :     2.328238
      px      :     0.815762
      py      :     0.864749
      dz2     :     0.005206  d :     0.133226
      dxz     :     0.019402
      dyz     :     0.039046
      dx2y2   :     0.049640
      dxy     :     0.019931
      f0      :     0.002204  f :     0.018882
      f+1     :     0.000952
      f-1     :     0.001675
      f+2     :     0.000652
      f-2     :     0.003546
      f+3     :     0.004081
      f-3     :     0.005772
  3 C s       :     3.524149  s :     3.524149
      pz      :     0.647855  p :     2.327821
      px      :     0.815266
      py      :     0.864701
      dz2     :     0.005206  d :     0.133200
      dxz     :     0.019363
      dyz     :     0.039088
      dx2y2   :     0.049571
      dxy     :     0.019971
      f0      :     0.002204  f :     0.018877
      f+1     :     0.000950
      f-1     :     0.001676
      f+2     :     0.000656
      f-2     :     0.003541
      f+3     :     0.004078
      f-3     :     0.005772
  4 C s       :     3.491234  s :     3.491234
      pz      :     0.955601  p :     2.349005
      px      :     0.688330
      py      :     0.705074
      dz2     :     0.021683  d :     0.144479
      dxz     :     0.057936
      dyz     :     0.058851
      dx2y2   :     0.003041
      dxy     :     0.002967
      f0      :     0.005952  f :     0.019197
      f+1     :     0.006345
      f-1     :     0.006368
      f+2     :     0.000249
      f-2     :     0.000266
      f+3     :     0.000012
      f-3     :     0.000006
  5 C s       :     3.491191  s :     3.491191
      pz      :     0.955747  p :     2.349104
      px      :     0.688272
      py      :     0.705085
      dz2     :     0.021656  d :     0.144494
      dxz     :     0.057979
      dyz     :     0.058876
      dx2y2   :     0.003025
      dxy     :     0.002958
      f0      :     0.005949  f :     0.019202
      f+1     :     0.006356
      f-1     :     0.006374
      f+2     :     0.000244
      f-2     :     0.000260
      f+3     :     0.000012
      f-3     :     0.000006
  6 O s       :     3.797772  s :     3.797772
      pz      :     1.434922  p :     4.251469
      px      :     1.324336
      py      :     1.492211
      dz2     :     0.001986  d :     0.029188
      dxz     :     0.010799
      dyz     :    -0.000004
      dx2y2   :     0.005967
      dxy     :     0.010440
      f0      :     0.000221  f :     0.001551
      f+1     :     0.000107
      f-1     :     0.000032
      f+2     :     0.000403
      f-2     :     0.000000
      f+3     :     0.000205
      f-3     :     0.000582
  7 O s       :     3.796296  s :     3.796296
      pz      :     1.439633  p :     4.250214
      px      :     1.432676
      py      :     1.377905
      dz2     :     0.001965  d :     0.029091
      dxz     :     0.003476
      dyz     :     0.007308
      dx2y2   :     0.009839
      dxy     :     0.006503
      f0      :     0.000224  f :     0.001555
      f+1     :     0.000057
      f-1     :     0.000084
      f+2     :     0.000051
      f-2     :     0.000352
      f+3     :     0.000224
      f-3     :     0.000562
  8 O s       :     3.796263  s :     3.796263
      pz      :     1.439729  p :     4.250130
      px      :     1.432609
      py      :     1.377793
      dz2     :     0.001965  d :     0.029091
      dxz     :     0.003471
      dyz     :     0.007314
      dx2y2   :     0.009837
      dxy     :     0.006505
      f0      :     0.000225  f :     0.001555
      f+1     :     0.000057
      f-1     :     0.000084
      f+2     :     0.000051
      f-2     :     0.000352
      f+3     :     0.000224
      f-3     :     0.000562
  9 O s       :     3.804544  s :     3.804544
      pz      :     1.321149  p :     4.231358
      px      :     1.450465
      py      :     1.459744
      dz2     :     0.007832  d :     0.029794
      dxz     :     0.010928
      dyz     :     0.010948
      dx2y2   :     0.000043
      dxy     :     0.000044
      f0      :     0.000301  f :     0.001574
      f+1     :     0.000626
      f-1     :     0.000633
      f+2     :     0.000007
      f-2     :     0.000007
      f+3     :     0.000000
      f-3     :     0.000000
 10 O s       :     3.804534  s :     3.804534
      pz      :     1.321054  p :     4.231374
      px      :     1.450563
      py      :     1.459757
      dz2     :     0.007829  d :     0.029792
      dxz     :     0.010934
      dyz     :     0.010952
      dx2y2   :     0.000038
      dxy     :     0.000039
      f0      :     0.000300  f :     0.001573
      f+1     :     0.000627
      f-1     :     0.000634
      f+2     :     0.000006
      f-2     :     0.000006
      f+3     :     0.000000
      f-3     :     0.000000


                     *******************************
                     * LOEWDIN POPULATION ANALYSIS *
                     *******************************

----------------------
LOEWDIN ATOMIC CHARGES
----------------------
   0 Fe:    0.039784
   1 C :   -0.267900
   2 C :   -0.260214
   3 C :   -0.259971
   4 C :   -0.243901
   5 C :   -0.243968
   6 O :    0.238712
   7 O :    0.238580
   8 O :    0.238645
   9 O :    0.260121
  10 O :    0.260114

-------------------------------
LOEWDIN REDUCED ORBITAL CHARGES
-------------------------------
  0 Fes       :     6.164450  s :     6.164450
      pz      :     4.384586  p :    13.242019
      px      :     4.426929
      py      :     4.430504
      dz2     :     0.882509  d :     6.552931
      dxz     :     1.431021
      dyz     :     1.448625
      dx2y2   :     1.411905
      dxy     :     1.378872
      f0      :     0.000314  f :     0.000816
      f+1     :     0.000124
      f-1     :     0.000110
      f+2     :     0.000007
      f-2     :     0.000009
      f+3     :     0.000227
      f-3     :     0.000025
  1 C s       :     3.080879  s :     3.080879
      pz      :     0.667974  p :     2.562324
      px      :     1.134871
      py      :     0.759478
      dz2     :     0.047831  d :     0.536553
      dxz     :     0.161157
      dyz     :     0.004118
      dx2y2   :     0.142973
      dxy     :     0.180474
      f0      :     0.010089  f :     0.088145
      f+1     :     0.012529
      f-1     :     0.001661
      f+2     :     0.016835
      f-2     :     0.000617
      f+3     :     0.020697
      f-3     :     0.025717
  2 C s       :     3.090153  s :     3.090153
      pz      :     0.670099  p :     2.552674
      px      :     0.872253
      py      :     1.010321
      dz2     :     0.047525  d :     0.529494
      dxz     :     0.053053
      dyz     :     0.109162
      dx2y2   :     0.172218
      dxy     :     0.147537
      f0      :     0.010140  f :     0.087893
      f+1     :     0.005067
      f-1     :     0.008923
      f+2     :     0.002649
      f-2     :     0.014849
      f+3     :     0.020938
      f-3     :     0.025326
  3 C s       :     3.090317  s :     3.090317
      pz      :     0.670142  p :     2.552390
      px      :     0.871802
      py      :     1.010446
      dz2     :     0.047523  d :     0.529380
      dxz     :     0.052927
      dyz     :     0.109281
      dx2y2   :     0.172081
      dxy     :     0.147567
      f0      :     0.010141  f :     0.087885
      f+1     :     0.005058
      f-1     :     0.008929
      f+2     :     0.002661
      f-2     :     0.014837
      f+3     :     0.020932
      f-3     :     0.025326
  4 C s       :     3.072346  s :     3.072346
      pz      :     1.149766  p :     2.561700
      px      :     0.699805
      py      :     0.712129
      dz2     :     0.173652  d :     0.520917
      dxz     :     0.166723
      dyz     :     0.167916
      dx2y2   :     0.006303
      dxy     :     0.006323
      f0      :     0.031163  f :     0.088938
      f+1     :     0.027752
      f-1     :     0.027971
      f+2     :     0.000975
      f-2     :     0.001002
      f+3     :     0.000059
      f-3     :     0.000015
  5 C s       :     3.072256  s :     3.072256
      pz      :     1.149940  p :     2.561758
      px      :     0.699673
      py      :     0.712144
      dz2     :     0.173719  d :     0.521012
      dxz     :     0.166736
      dyz     :     0.167999
      dx2y2   :     0.006260
      dxy     :     0.006298
      f0      :     0.031164  f :     0.088943
      f+1     :     0.027785
      f-1     :     0.028000
      f+2     :     0.000948
      f-2     :     0.000972
      f+3     :     0.000059
      f-3     :     0.000015
  6 O s       :     3.405158  s :     3.405158
      pz      :     1.333742  p :     4.284855
      px      :     1.566724
      py      :     1.384389
      dz2     :     0.008815  d :     0.065107
      dxz     :     0.012819
      dyz     :     0.000002
      dx2y2   :     0.026519
      dxy     :     0.016952
      f0      :     0.000462  f :     0.006167
      f+1     :     0.001234
      f-1     :     0.000094
      f+2     :     0.000796
      f-2     :     0.000001
      f+3     :     0.002100
      f-3     :     0.001479
  7 O s       :     3.406054  s :     3.406054
      pz      :     1.337610  p :     4.284642
      px      :     1.439557
      py      :     1.507475
      dz2     :     0.008812  d :     0.064601
      dxz     :     0.004185
      dyz     :     0.008803
      dx2y2   :     0.017548
      dxy     :     0.025252
      f0      :     0.000466  f :     0.006123
      f+1     :     0.000463
      f-1     :     0.000869
      f+2     :     0.000102
      f-2     :     0.000698
      f+3     :     0.002059
      f-3     :     0.001466
  8 O s       :     3.406063  s :     3.406063
      pz      :     1.337680  p :     4.284578
      px      :     1.439320
      py      :     1.507577
      dz2     :     0.008813  d :     0.064592
      dxz     :     0.004180
      dyz     :     0.008813
      dx2y2   :     0.017543
      dxy     :     0.025243
      f0      :     0.000467  f :     0.006123
      f+1     :     0.000462
      f-1     :     0.000869
      f+2     :     0.000103
      f-2     :     0.000698
      f+3     :     0.002060
      f-3     :     0.001464
  9 O s       :     3.400668  s :     3.400668
      pz      :     1.563596  p :     4.267604
      px      :     1.348350
      py      :     1.355659
      dz2     :     0.035563  d :     0.065293
      dxz     :     0.014610
      dyz     :     0.014999
      dx2y2   :     0.000063
      dxy     :     0.000059
      f0      :     0.003389  f :     0.006314
      f+1     :     0.001441
      f-1     :     0.001452
      f+2     :     0.000017
      f-2     :     0.000014
      f+3     :     0.000000
      f-3     :     0.000000
 10 O s       :     3.400659  s :     3.400659
      pz      :     1.563657  p :     4.267618
      px      :     1.348296
      py      :     1.355665
      dz2     :     0.035590  d :     0.065295
      dxz     :     0.014591
      dyz     :     0.015004
      dx2y2   :     0.000057
      dxy     :     0.000054
      f0      :     0.003394  f :     0.006314
      f+1     :     0.001438
      f-1     :     0.001454
      f+2     :     0.000016
      f-2     :     0.000012
      f+3     :     0.000000
      f-3     :     0.000000


                      *****************************
                      * MAYER POPULATION ANALYSIS *
                      *****************************

  NA   - Mulliken gross atomic population
  ZA   - Total nuclear charge
  QA   - Mulliken gross atomic charge
  VA   - Mayer's total valence
  BVA  - Mayer's bonded valence
  FA   - Mayer's free valence

  ATOM       NA         ZA         QA         VA         BVA        FA
  0 Fe    25.6085    26.0000     0.3915     5.7050     5.7050    -0.0000
  1 C      6.0066     6.0000    -0.0066     3.4891     3.4891     0.0000
  2 C      6.0042     6.0000    -0.0042     3.4781     3.4781     0.0000
  3 C      6.0040     6.0000    -0.0040     3.4777     3.4777     0.0000
  4 C      6.0039     6.0000    -0.0039     3.4996     3.4996    -0.0000
  5 C      6.0040     6.0000    -0.0040     3.4998     3.4998     0.0000
  6 O      8.0800     8.0000    -0.0800     2.3905     2.3905     0.0000
  7 O      8.0772     8.0000    -0.0772     2.3850     2.3850     0.0000
  8 O      8.0770     8.0000    -0.0770     2.3849     2.3849    -0.0000
  9 O      8.0673     8.0000    -0.0673     2.4287     2.4287    -0.0000
 10 O      8.0673     8.0000    -0.0673     2.4287     2.4287     0.0000

  Mayer bond orders larger than 0.100000
B(  0-Fe,  1-C ) :   1.0220 B(  0-Fe,  2-C ) :   1.0314 B(  0-Fe,  3-C ) :   1.0312 
B(  0-Fe,  4-C ) :   1.0214 B(  0-Fe,  5-C ) :   1.0216 B(  0-Fe,  6-O ) :   0.1206 
B(  0-Fe,  7-O ) :   0.1192 B(  0-Fe,  8-O ) :   0.1191 B(  0-Fe,  9-O ) :   0.1092 
B(  0-Fe, 10-O ) :   0.1092 B(  1-C ,  6-O ) :   2.2355 B(  2-C ,  7-O ) :   2.2322 
B(  3-C ,  8-O ) :   2.2323 B(  4-C ,  9-O ) :   2.2762 B(  5-C , 10-O ) :   2.2761 


-------
TIMINGS
-------

Total SCF time: 0 days 0 hours 2 min 13 sec 

Total time                  ....     133.957 sec
Sum of individual times     ....     133.536 sec  ( 99.7%)

Fock matrix formation       ....     130.212 sec  ( 97.2%)
  XC integration            ....       7.707 sec  (  5.9% of F)
    Basis function eval.    ....       2.605 sec  ( 33.8% of XC)
    Density eval.           ....       1.849 sec  ( 24.0% of XC)
    XC-Functional eval.     ....       0.372 sec  (  4.8% of XC)
    XC-Potential eval.      ....       2.432 sec  ( 31.5% of XC)
Diagonalization             ....       0.909 sec  (  0.7%)
Density matrix formation    ....       0.044 sec  (  0.0%)
Population analysis         ....       0.020 sec  (  0.0%)
Initial guess               ....       0.429 sec  (  0.3%)
Orbital Transformation      ....       0.000 sec  (  0.0%)
Orbital Orthonormalization  ....       0.000 sec  (  0.0%)
DIIS solution               ....       0.363 sec  (  0.3%)
Grid generation             ....       1.559 sec  (  1.2%)

-------------------------   --------------------
FINAL SINGLE POINT ENERGY     -1830.352692278119
-------------------------   --------------------


                            ***************************************
                            *     ORCA property calculations      *
                            ***************************************

                                    ---------------------
                                    Active property flags
                                    ---------------------
   (+) Dipole Moment
   (+) Nuclear properties (Hyperfine,Quadrupole)


------------------------------------------------------------------------------
                       ORCA ELECTRIC PROPERTIES CALCULATION
------------------------------------------------------------------------------

Dipole Moment Calculation                       ... on
Quadrupole Moment Calculation                   ... off
Polarizability Calculation                      ... off
GBWName                                         ... feco5.gbw
Electron density file                           ... feco5.scfp
The origin for moment calculation is the CENTER OF MASS  = ( 0.002543,  0.000210  0.000001)

-------------
DIPOLE MOMENT
-------------
                                X             Y             Z
Electronic contribution:      0.00522       0.00237      -0.00017
Nuclear contribution   :     -0.02020      -0.00218       0.00003
                        -----------------------------------------
Total Dipole Moment    :     -0.01499       0.00020      -0.00015
                        -----------------------------------------
Magnitude (a.u.)       :      0.01499
Magnitude (Debye)      :      0.03810



--------------------
Rotational spectrum 
--------------------
 
Rotational constants in cm-1:     0.031176     0.027618     0.025894 
Rotational constants in MHz :   934.632307   827.956670   776.278510 

 Dipole components along the rotational axes: 
x,y,z [a.u.] :    -0.000083    -0.014987     0.000101 
x,y,z [Debye]:    -0.000211    -0.038095     0.000258 

 


           ************************************************************
           *        Program running with 8 parallel MPI-processes     *
           *              working on a common directory               *
           ************************************************************
------------------------------------------------------------------------------
                                ORCA EPR/NMR CALCULATION
------------------------------------------------------------------------------

GBWName                      ... feco5.gbw
Electron density file        ... feco5.scfp
Spin density file            ... feco5.scfr
Multiplicity                 ... 1
g-tensor                     ... 0
NMR chemical shifts          ... 0
Number of nuclei for epr/nmr ... 1
   Nucleus:   0Fe
       Hyperfine : Isotope=   57 I=   0.500 P=  17.280
       Quadrupole: Isotope=   57 I=   0.500 Q=   0.160
       Spin-Orbit: Zeff=  13.910
       Ncuelar Spin-Spin: Gn=   0.000
       rho(0)=Y f(grad)=Y a(iso)=N a(dip)=N a(orb)=N sigma(nmr)=N spin-spin(nmr)=all-N,DSO-N,PSO-N,FC-N,SD-N

-----------------------------------------
ELECTRIC AND MAGNETIC HYPERFINE STRUCTURE
-----------------------------------------

 -----------------------------------------------------------
 Nucleus   0Fe: A:ISTP=   57 I=  0.5 P= 17.2798 MHz/au**3
                Q:ISTP=   57 I=  0.5 Q=  0.1600 barn     
 -----------------------------------------------------------
 Raw EFG matrix (all values in a.u.**-3):
            -0.6467      -0.0041       0.0021
            -0.0041      -0.9123       0.0025
             0.0021       0.0025       1.5591

 V(El)      -0.6160      -0.7576       1.3735
 V(Nuc)     -0.0307      -0.1548       0.1855
         ----------   ----------   ----------
 V(Tot)     -0.6467      -0.9124       1.5591 
 Orientation: 
  X       0.9998779   -0.0155960   -0.0009717
  Y      -0.0155970   -0.9998778   -0.0010109
  Z      -0.0009558    0.0010260   -0.9999990

Note: Tensor is right-handed

Moessbauer quadrupole splitting parameter (proper coordinate system)
 e**2qQ  =   58.612 MHz =    5.053 mm/s
 eta     =  0.170
 Delta-EQ=(1/2{e**2qQ}*sqrt(1+1/3*eta**2) =   29.448 MHz =    2.539 mm/s
 RHO(0)=  11818.201686423 a.u.**-3


------------------------------------------------------------------------------- 

Timings for individual modules:

Sum of individual times         ...      135.449 sec (=   2.257 min)
GTO integral calculation        ...        0.857 sec (=   0.014 min)   0.6 %
SCF iterations                  ...      134.177 sec (=   2.236 min)  99.1 %
EPR/NMR calculation             ...        0.415 sec (=   0.007 min)   0.3 %
                             ****ORCA TERMINATED NORMALLY****
TOTAL RUN TIME: 0 days 0 hours 2 minutes 15 seconds 869 msec
