
                                 *****************
                                 * O   R   C   A *
                                 *****************

           --- An Ab Initio, DFT and Semiempirical electronic structure package ---

                  #######################################################
                  #                        -***-                        #
                  #          Department of theory and spectroscopy      #
                  #               Directorship: Frank Neese             #
                  #        Max Planck Institute fuer Kohlenforschung    #
                  #                Kaiser Wilhelm Platz 1               #
                  #                 D-45470 Muelheim/Ruhr               #
                  #                      Germany                        #
                  #                                                     #
                  #                  All rights reserved                #
                  #                        -***-                        #
                  #######################################################


                         Program Version 4.2.1 -  RELEASE  -


 With contributions from (in alphabetic order):
   Daniel Aravena         : Magnetic Suceptibility
   Michael Atanasov       : Ab Initio Ligand Field Theory (pilot matlab implementation)
   Alexander A. Auer      : GIAO ZORA, VPT2
   Ute Becker             : Parallelization
   Giovanni Bistoni       : ED, misc. LED, open-shell LED, HFLD
   Martin Brehm           : Molecular dynamics
   Dmytro Bykov           : SCF Hessian
   Vijay G. Chilkuri      : MRCI spin determinant printing, contributions to CSF-ICE
   Dipayan Datta          : RHF DLPNO-CCSD density
   Achintya Kumar Dutta   : EOM-CC, STEOM-CC
   Dmitry Ganyushin       : Spin-Orbit,Spin-Spin,Magnetic field MRCI
   Miquel Garcia          : C-PCM Hessian, Gaussian charge scheme
   Yang Guo               : DLPNO-NEVPT2, CIM, IAO-localization
   Andreas Hansen         : Spin unrestricted coupled pair/coupled cluster methods
   Benjamin Helmich-Paris : CASSCF linear response (MC-RPA)
   Lee Huntington         : MR-EOM, pCC
   Robert Izsak           : Overlap fitted RIJCOSX, COSX-SCS-MP3, EOM
   Christian Kollmar      : KDIIS, OOCD, Brueckner-CCSD(T), CCSD density
   Simone Kossmann        : Meta GGA functionals, TD-DFT gradient, OOMP2, MP2 Hessian
   Martin Krupicka        : AUTO-CI
   Lucas Lang             : DCDCAS
   Dagmar Lenk            : GEPOL surface, SMD
   Dimitrios Liakos       : Extrapolation schemes; Compound Job, initial MDCI parallelization
   Dimitrios Manganas     : Further ROCIS development; embedding schemes
   Dimitrios Pantazis     : SARC Basis sets
   Taras Petrenko         : DFT Hessian,TD-DFT gradient, ASA, ECA, R-Raman, ABS, FL, XAS/XES, NRVS
   Peter Pinski           : DLPNO-MP2, DLPNO-MP2 Gradient
   Christoph Reimann      : Effective Core Potentials
   Marius Retegan         : Local ZFS, SOC
   Christoph Riplinger    : Optimizer, TS searches, QM/MM, DLPNO-CCSD(T), (RO)-DLPNO pert. Triples
   Tobias Risthaus        : Range-separated hybrids, TD-DFT gradient, RPA, STAB
   Michael Roemelt        : Original ROCIS implementation
   Masaaki Saitow         : Open-shell DLPNO-CCSD energy and density
   Barbara Sandhoefer     : DKH picture change effects
   Avijit Sen             : IP-ROCIS
   Kantharuban Sivalingam : CASSCF convergence, NEVPT2, FIC-MRCI
   Bernardo de Souza      : ESD, SOC TD-DFT
   Georgi Stoychev        : AutoAux, RI-MP2 NMR
   Willem Van den Heuvel  : Paramagnetic NMR
   Boris Wezisla          : Elementary symmetry handling
   Frank Wennmohs         : Technical directorship


 We gratefully acknowledge several colleagues who have allowed us to
 interface, adapt or use parts of their codes:
   Stefan Grimme, W. Hujo, H. Kruse,             : VdW corrections, initial TS optimization,
                  C. Bannwarth                     DFT functionals, gCP, sTDA/sTD-DF
   Ed Valeev, F. Pavosevic, A. Kumar             : LibInt (2-el integral package), F12 methods
   Garnet Chan, S. Sharma, J. Yang, R. Olivares  : DMRG
   Ulf Ekstrom                                   : XCFun DFT Library
   Mihaly Kallay                                 : mrcc  (arbitrary order and MRCC methods)
   Andreas Klamt, Michael Diedenhofen            : otool_cosmo (COSMO solvation model)
   Jiri Pittner, Ondrej Demel                    : Mk-CCSD
   Frank Weinhold                                : gennbo (NPA and NBO analysis)
   Christopher J. Cramer and Donald G. Truhlar   : smd solvation model
   Lars Goerigk                                  : TD-DFT with DH, B97 family of functionals
   V. Asgeirsson, H. Jonsson                     : NEB implementation
   FAccTs GmbH                                   : IRC, NEB, NEB-TS, Multilevel, MM, QM/MM, CI optimization
   S Lehtola, MJT Oliveira, MAL Marques          : LibXC Library


 Your calculation uses the libint2 library for the computation of 2-el integrals
 For citations please refer to: http://libint.valeyev.net

 Your ORCA version has been built with support for libXC version: 4.2.3
 For citations please refer to: https://tddft.org/programs/libxc/

 This ORCA versions uses:
   CBLAS   interface :  Fast vector & matrix operations
   LAPACKE interface :  Fast linear algebra routines
   SCALAPACK package :  Parallel linear algebra routines


----- Orbital basis set information -----
Your calculation utilizes the basis: 6-31G
   H-He, Li-Ne : W. J. Hehre, R. Ditchfield and J.A. Pople, J. Chem. Phys. 56, 2257 (1972).
                 Note: He and Ne are unpublished basis sets taken from the Gaussian program.
                 Note: Li and B from J. D. Dill and J. A. Pople, J. Chem. Phys. 62, 2921 (1975).
   Na - Ar     : M. M. Francl, W. J. Pietro, W. J. Hehre, J. S. Binkley, M. S. Gordon, 
                 D. J. DeFrees and J. A. Pople, J. Chem. Phys. 77, 3654 (1982).
   K - Zn      : V. A. Rassolov, J. A. Pople, M. A. Ratner, and T. L. Windus, J. Chem. Phys. 109, 1223 (1998).

================================================================================
                                        WARNINGS
                       Please study these warnings very carefully!
================================================================================


WARNING: your system is open-shell and RHF/RKS was chosen
  ===> : WILL SWITCH to UHF/UKS


INFO   : the flag for use of LIBINT has been found!

================================================================================
                                       INPUT FILE
================================================================================
NAME = fe3cn6.inp
|  1> ! DFT B3LYP 6-31g TightSCF Grid5 NoFinalGrid SlowConv
|  2> %pal
|  3> nprocs 16
|  4> end
|  5> %method SpecialGridAtoms 26
|  6> SpecialGridIntAcc 7
|  7> end
|  8> %basis NewGTO 26 "CP(PPP)" end
|  9> end
| 10> # [Fe(lll)(CN)6]3- , s = 1/2 ,  m = 2s + 1
| 11> * xyz -3 2
| 12> Fe -0.000018 -0.000019  0.000039
| 13> C   1.942716 -0.035671  0.036581
| 14> C  -1.942739  0.036085 -0.036470
| 15> C  -0.035924  1.942941  0.036657
| 16> C   0.035719 -1.942959 -0.036888
| 17> C   0.035898  0.036368  1.942767
| 18> C  -0.035628 -0.036600 -1.942726
| 19> N   3.116883 -0.042390  0.042632
| 20> N  -3.116896  0.042905 -0.042321
| 21> N  -0.042631  3.117085  0.042625
| 22> N   0.042282 -3.117112 -0.042932
| 23> N   0.043454  0.043125  3.116934
| 24> N  -0.043116 -0.043759 -3.116897
| 25> *
| 26> # Note that the EPR block needs to below the coordinate block for 
| 27> # the “all Fe” command (all irons) to be recognized. 
| 28> %eprnmr nuclei = all Fe {rho, fgrad}
| 29> end
| 30> 
| 31>                          ****END OF INPUT****
================================================================================

                       ****************************
                       * Single Point Calculation *
                       ****************************

---------------------------------
CARTESIAN COORDINATES (ANGSTROEM)
---------------------------------
  Fe    -0.000018   -0.000019    0.000039
  C      1.942716   -0.035671    0.036581
  C     -1.942739    0.036085   -0.036470
  C     -0.035924    1.942941    0.036657
  C      0.035719   -1.942959   -0.036888
  C      0.035898    0.036368    1.942767
  C     -0.035628   -0.036600   -1.942726
  N      3.116883   -0.042390    0.042632
  N     -3.116896    0.042905   -0.042321
  N     -0.042631    3.117085    0.042625
  N      0.042282   -3.117112   -0.042932
  N      0.043454    0.043125    3.116934
  N     -0.043116   -0.043759   -3.116897

----------------------------
CARTESIAN COORDINATES (A.U.)
----------------------------
  NO LB      ZA    FRAG     MASS         X           Y           Z
   0 Fe   26.0000    0    55.850   -0.000034   -0.000036    0.000074
   1 C     6.0000    0    12.011    3.671201   -0.067408    0.069128
   2 C     6.0000    0    12.011   -3.671245    0.068191   -0.068918
   3 C     6.0000    0    12.011   -0.067887    3.671626    0.069272
   4 C     6.0000    0    12.011    0.067499   -3.671660   -0.069708
   5 C     6.0000    0    12.011    0.067837    0.068726    3.671298
   6 C     6.0000    0    12.011   -0.067327   -0.069164   -3.671220
   7 N     7.0000    0    14.007    5.890055   -0.080105    0.080563
   8 N     7.0000    0    14.007   -5.890080    0.081079   -0.079975
   9 N     7.0000    0    14.007   -0.080561    5.890437    0.080550
  10 N     7.0000    0    14.007    0.079901   -5.890488   -0.081130
  11 N     7.0000    0    14.007    0.082116    0.081494    5.890152
  12 N     7.0000    0    14.007   -0.081477   -0.082693   -5.890082

--------------------------------
INTERNAL COORDINATES (ANGSTROEM)
--------------------------------
 Fe     0   0   0     0.000000000000     0.00000000     0.00000000
 C      1   0   0     1.943404687044     0.00000000     0.00000000
 C      1   2   0     1.943399415905   179.98663398     0.00000000
 C      1   2   3     1.943636715119    92.08899304     3.04257748
 C      1   2   4     1.943619453519    87.91615414   179.99097251
 C      1   2   5     1.943400641867    87.88371626    92.22159017
 C      1   2   6     1.943435640016    92.10713673   180.00553162
 N      2   1   3     1.174201815469   178.93459892   308.60949241
 N      3   1   6     1.174191384422   178.92244343   316.12435457
 N      4   1   2     1.174178322747   178.92468404    48.25783676
 N      5   1   2     1.174186897523   178.91931419   131.62671209
 N      6   1   2     1.174210753687   178.98568317   228.19432135
 N      7   1   2     1.174216700046   178.99975802   312.10790457

---------------------------
INTERNAL COORDINATES (A.U.)
---------------------------
 Fe     0   0   0     0.000000000000     0.00000000     0.00000000
 C      1   0   0     3.672502625892     0.00000000     0.00000000
 C      1   2   0     3.672492664882   179.98663398     0.00000000
 C      1   2   3     3.672941095410    92.08899304     3.04257748
 C      1   2   4     3.672908475713    87.91615414   179.99097251
 C      1   2   5     3.672494981615    87.88371626    92.22159017
 C      1   2   6     3.672561118533    92.10713673   180.00553162
 N      2   1   3     2.218919857190   178.93459892   308.60949241
 N      3   1   6     2.218900145367   178.92244343   316.12435457
 N      4   1   2     2.218875462379   178.92468404    48.25783676
 N      5   1   2     2.218891666357   178.91931419   131.62671209
 N      6   1   2     2.218936747974   178.98568317   228.19432135
 N      7   1   2     2.218947984963   178.99975802   312.10790457

---------------------
BASIS SET INFORMATION
---------------------
There are 3 groups of distinct atoms

 Group   1 Type Fe  : 17s11p5d1f contracted to 17s7p3d1f pattern {11111111111111111/3311111/311/1}
 Group   2 Type C   : 10s4p contracted to 3s2p pattern {631/31}
 Group   3 Type N   : 10s4p contracted to 3s2p pattern {631/31}

Atom   0Fe   basis set group =>   1
Atom   1C    basis set group =>   2
Atom   2C    basis set group =>   2
Atom   3C    basis set group =>   2
Atom   4C    basis set group =>   2
Atom   5C    basis set group =>   2
Atom   6C    basis set group =>   2
Atom   7N    basis set group =>   3
Atom   8N    basis set group =>   3
Atom   9N    basis set group =>   3
Atom  10N    basis set group =>   3
Atom  11N    basis set group =>   3
Atom  12N    basis set group =>   3


           ************************************************************
           *        Program running with 16 parallel MPI-processes    *
           *              working on a common directory               *
           ************************************************************
------------------------------------------------------------------------------
                           ORCA GTO INTEGRAL CALCULATION
------------------------------------------------------------------------------

                         BASIS SET STATISTICS AND STARTUP INFO

 # of primitive gaussian shells          ...  202
 # of primitive gaussian functions       ...  346
 # of contracted shells                  ...   88
 # of contracted basis functions         ...  168
 Highest angular momentum                ...    3
 Maximum contraction depth               ...    6
 Integral package used                   ... LIBINT
 Integral threshhold            Thresh   ...  2.500e-11
 Primitive cut-off              TCut     ...  2.500e-12


------------------------------ INTEGRAL EVALUATION ----------------------------


 * One electron integrals 
 Pre-screening matrix                    ... done
 Shell pair data                         ... done (   0.002 sec)



           ************************************************************
           *        Program running with 16 parallel MPI-processes    *
           *              working on a common directory               *
           ************************************************************
-------------------------------------------------------------------------------
                                 ORCA SCF
-------------------------------------------------------------------------------

------------
SCF SETTINGS
------------
Hamiltonian:
 Density Functional     Method          .... DFT(GTOs)
 Exchange Functional    Exchange        .... B88
   X-Alpha parameter    XAlpha          ....  0.666667
   Becke's b parameter  XBeta           ....  0.004200
 Correlation Functional Correlation     .... LYP
 LDA part of GGA corr.  LDAOpt          .... VWN-5
 Gradients option       PostSCFGGA      .... off
 Hybrid DFT is turned on
   Fraction HF Exchange ScalHFX         ....  0.200000
   Scaling of DF-GGA-X  ScalDFX         ....  0.720000
   Scaling of DF-GGA-C  ScalDFC         ....  0.810000
   Scaling of DF-LDA-C  ScalLDAC        ....  1.000000
   Perturbative correction              ....  0.000000
   Density functional embedding theory  .... OFF
   NL short-range parameter             ....  4.800000


General Settings:
 Integral files         IntName         .... fe3cn6
 Hartree-Fock type      HFTyp           .... UHF
 Total Charge           Charge          ....   -3
 Multiplicity           Mult            ....    2
 Number of Electrons    NEL             ....  107
 Basis Dimension        Dim             ....  168
 Nuclear Repulsion      ENuc            ....    906.3639403145 Eh

Convergence Acceleration:
 DIIS                   CNVDIIS         .... on
   Start iteration      DIISMaxIt       ....     0
   Startup error        DIISStart       ....  0.200000
   # of expansion vecs  DIISMaxEq       ....     5
   Bias factor          DIISBfac        ....   1.050
   Max. coefficient     DIISMaxC        ....  10.000
 Newton-Raphson         CNVNR           .... off
 SOSCF                  CNVSOSCF        .... off
 Level Shifting         CNVShift        .... on
   Level shift para.    LevelShift      ....    0.2500
   Turn off err/grad.   ShiftErr        ....    0.0000
 Zerner damping         CNVZerner       .... off
 Static damping         CNVDamp         .... on
   Fraction old density DampFac         ....    0.8500
   Max. Damping (<1)    DampMax         ....    0.9800
   Min. Damping (>=0)   DampMin         ....    0.0000
   Turn off err/grad.   DampErr         ....    0.0300
 Fernandez-Rico         CNVRico         .... off

SCF Procedure:
 Maximum # iterations   MaxIter         ....   125
 SCF integral mode      SCFMode         .... Direct
   Integral package                     .... LIBINT
 Reset frequency        DirectResetFreq ....    20
 Integral Threshold     Thresh          ....  2.500e-11 Eh
 Primitive CutOff       TCut            ....  2.500e-12 Eh

Convergence Tolerance:
 Convergence Check Mode ConvCheckMode   .... Total+1el-Energy
 Convergence forced     ConvForced      .... 0
 Energy Change          TolE            ....  1.000e-08 Eh
 1-El. energy change                    ....  1.000e-05 Eh
 DIIS Error             TolErr          ....  5.000e-07


Diagonalization of the overlap matrix:
Smallest eigenvalue                        ... 1.168e-03
Time for diagonalization                   ...    0.008 sec
Threshold for overlap eigenvalues          ... 1.000e-08
Number of eigenvalues below threshold      ... 0
Time for construction of square roots      ...    0.005 sec
Total time needed                          ...    0.014 sec

-------------------
DFT GRID GENERATION
-------------------

General Integration Accuracy     IntAcc      ...  5.010
Radial Grid Type                 RadialGrid  ... Gauss-Chebyshev
Angular Grid (max. acc.)         AngularGrid ... Lebedev-434
Angular grid pruning method      GridPruning ... 3 (G Style)
Weight generation scheme         WeightScheme... Becke
Basis function cutoff            BFCut       ...    1.0000e-11
Integration weight cutoff        WCut        ...    1.0000e-14
Grids for H and He will be reduced by one unit

SpecialGrid => Setting IntAcc for atom type =  26 to   7.0000
# of grid points (after initial pruning)     ... 152294 (   0.0 sec)
# of grid points (after weights+screening)   ... 142040 (   0.1 sec)
nearest neighbour list constructed           ...    0.0 sec
Grid point re-assignment to atoms done       ...    0.0 sec
Grid point division into batches done        ...    1.5 sec
Reduced shell lists constructed in    1.6 sec

Total number of grid points                  ...   142040
Total number of batches                      ...     2228
Average number of points per batch           ...       63
Average number of grid points per atom       ...    10926
Average number of shells per batch           ...    61.87 (70.31%)
Average number of basis functions per batch  ...   136.21 (81.08%)
Average number of large shells per batch     ...    52.65 (85.09%)
Average number of large basis fcns per batch ...   119.35 (87.62%)
Maximum spatial batch extension              ...   1.43,  1.43,  1.43 au
Average spatial batch extension              ...   0.05,  0.05,  0.05 au

Time for grid setup =    1.747 sec

------------------------------
INITIAL GUESS: MODEL POTENTIAL
------------------------------
Loading Hartree-Fock densities                     ... done
Calculating cut-offs                               ... done
Setting up the integral package                    ... done
Initializing the effective Hamiltonian             ... done
Starting the Coulomb interaction                   ... done (   0.0 sec)
Reading the grid                                   ... done
Mapping shells                                     ... done
Starting the XC term evaluation                    ... done (   0.1 sec)
  promolecular density results
     # of electrons  =    104.000097572
     EX              =   -124.175900866
     EC              =     -3.884733098
     EX+EC           =   -128.060633964
Transforming the Hamiltonian                       ... done (   0.0 sec)
Diagonalizing the Hamiltonian                      ... done (   0.0 sec)
Back transforming the eigenvectors                 ... done (   0.0 sec)
Now organizing SCF variables                       ... done
                      ------------------
                      INITIAL GUESS DONE (   1.9 sec)
                      ------------------
--------------
SCF ITERATIONS
--------------
ITER       Energy         Delta-E        Max-DP      RMS-DP      [F,P]     Damp
               ***  Starting incremental Fock matrix formation  ***
  0  -1819.5639810523   0.000000000000 0.05864309  0.00103188  0.5055506 0.8500
  1  -1819.7669683645  -0.202987312224 0.01648843  0.00081525  0.4310498 0.8500
                               ***Turning on DIIS***
  2  -1819.8182719649  -0.051303600427 0.03525242  0.00070219  0.3667366 0.8500
  3  -1819.8683457262  -0.050073761291 0.03846086  0.00063498  0.3115243 0.8500
  4  -1819.9167779822  -0.048432255980 0.01866272  0.00035573  0.2645954 0.8500
  5  -1819.9532237385  -0.036445756341 0.01287078  0.00023847  0.2251600 0.8500
  6  -1819.9828154254  -0.029591686833 0.01417909  0.00020475  0.1914678 0.8500
  7  -1820.0085703675  -0.025754942087 0.01338864  0.00019020  0.1627007 0.8500
  8  -1820.0308359065  -0.022265539089 0.01267827  0.00018378  0.1382324 0.8500
  9  -1820.0497286258  -0.018892719264 0.00797361  0.00014201  0.1174520 0.8500
 10  -1820.0654524309  -0.015723805115 0.00602666  0.00011532  0.0998915 0.8500
 11  -1820.0786235194  -0.013171088523 0.00687414  0.00010317  0.0849413 0.8500
 12  -1820.0899933637  -0.011369844219 0.00650030  0.00009271  0.0721691 0.8500
 13  -1820.0996723891  -0.009679025412 0.00478581  0.00007558  0.0613154 0.8500
 14  -1820.1078431646  -0.008170775518 0.00338728  0.00006150  0.0521243 0.8500
 15  -1820.1147508921  -0.006907727482 0.00314062  0.00005291  0.0443254 0.8500
 16  -1820.1206301747  -0.005879282604 0.00324925  0.00004786  0.0376772 0.8500
 17  -1820.1256524543  -0.005022279641 0.00272011  0.00004087  0.0320110 0.8500
 18  -1820.1299155860  -0.004263131664 0.01295167  0.00022032  0.0272046 0.0000
 19  -1820.1540584924  -0.024142906404 0.00187395  0.00002598  0.0028682 0.0000
               *** Restarting incremental Fock matrix formation ***
                                   *** Resetting DIIS ***
 20  -1820.1540300573   0.000028435067 0.00568649  0.00007175  0.0059119 0.0000
 21  -1820.1537375034   0.000292553920 0.00348147  0.00004077  0.0163513 0.0000
 22  -1820.1540329412  -0.000295437761 0.00118659  0.00001597  0.0050268 0.0000
 23  -1820.1540714135  -0.000038472334 0.00016735  0.00000438  0.0010971 0.0000
 24  -1820.1540738465  -0.000002433044 0.00021282  0.00000272  0.0002021 0.0000
 25  -1820.1540741932  -0.000000346692 0.00007224  0.00000158  0.0000482 0.0000
 26  -1820.1540743482  -0.000000154947 0.00005080  0.00000117  0.0000331 0.0000
 27  -1820.1540744408  -0.000000092574 0.00003386  0.00000111  0.0000057 0.0000
 28  -1820.1540745091  -0.000000068344 0.00002236  0.00000093  0.0000053 0.0000
 29  -1820.1540745510  -0.000000041932 0.00001945  0.00000080  0.0000049 0.0000
 30  -1820.1540745766  -0.000000025525 0.00001301  0.00000055  0.0000048 0.0000
 31  -1820.1540745877  -0.000000011179 0.00000974  0.00000041  0.0000047 0.0000
 32  -1820.1540745925  -0.000000004718 0.00000706  0.00000030  0.0000046 0.0000
 33  -1820.1540745961  -0.000000003629 0.00000704  0.00000028  0.0000045 0.0000
 34  -1820.1540745976  -0.000000001500 0.00000515  0.00000018  0.0000045 0.0000
 35  -1820.1540745980  -0.000000000401 0.00000867  0.00000025  0.0000044 0.0000
                 **** Energy Check signals convergence ****

               *****************************************************
               *                     SUCCESS                       *
               *           SCF CONVERGED AFTER  36 CYCLES          *
               *****************************************************


----------------
TOTAL SCF ENERGY
----------------

Total Energy       :        -1820.15407460 Eh          -49528.91037 eV

Components:
Nuclear Repulsion  :          906.36394031 Eh           24663.41668 eV
Electronic Energy  :        -2726.51801491 Eh          -74192.32705 eV
One Electron Energy:        -4351.95794442 Eh         -118422.79617 eV
Two Electron Energy:         1625.43992951 Eh           44230.46912 eV

Virial components:
Potential Energy   :        -3636.40006693 Eh          -98951.47642 eV
Kinetic Energy     :         1816.24599234 Eh           49422.56605 eV
Virial Ratio       :            2.00215174


DFT components:
N(Alpha)           :       54.000024111700 electrons
N(Beta)            :       53.000023824585 electrons
N(Total)           :      107.000047936284 electrons
E(X)               :      -99.884102430000 Eh       
E(C)               :       -4.671473645252 Eh       
E(XC)              :     -104.555576075252 Eh       
DFET-embed. en.    :        0.000000000000 Eh       

---------------
SCF CONVERGENCE
---------------

  Last Energy change         ...    6.4688e-10  Tolerance :   1.0000e-08
  Last MAX-Density change    ...    4.4715e-06  Tolerance :   1.0000e-07
  Last RMS-Density change    ...    1.1249e-07  Tolerance :   5.0000e-09
  Last DIIS Error            ...    4.3320e-06  Tolerance :   5.0000e-07

             **** THE GBW FILE WAS UPDATED (fe3cn6.gbw) ****
             **** DENSITY FILE WAS UPDATED (fe3cn6.scfp) ****
             **** ENERGY FILE WAS UPDATED (fe3cn6.en.tmp) ****
----------------------
UHF SPIN CONTAMINATION
----------------------

Warning: in a DFT calculation there is little theoretical justification to 
         calculate <S**2> as in Hartree-Fock theory. We will do it anyways
         but you should keep in mind that the values have only limited relevance

Expectation value of <S**2>     :     0.764017
Ideal value S*(S+1) for S=0.5   :     0.750000
Deviation                       :     0.014017

             **** THE GBW FILE WAS UPDATED (fe3cn6.gbw) ****
             **** DENSITY FILE WAS UPDATED (fe3cn6.scfp) ****
----------------
ORBITAL ENERGIES
----------------
                 SPIN UP ORBITALS
  NO   OCC          E(Eh)            E(eV) 
   0   1.0000    -255.666026     -6957.0262 
   1   1.0000     -29.639113      -806.5213 
   2   1.0000     -25.510617      -694.1792 
   3   1.0000     -25.491420      -693.6568 
   4   1.0000     -25.491332      -693.6544 
   5   1.0000     -13.895763      -378.1229 
   6   1.0000     -13.895756      -378.1228 
   7   1.0000     -13.895749      -378.1226 
   8   1.0000     -13.895738      -378.1223 
   9   1.0000     -13.895707      -378.1214 
  10   1.0000     -13.895695      -378.1211 
  11   1.0000      -9.776860      -266.0419 
  12   1.0000      -9.776841      -266.0414 
  13   1.0000      -9.776817      -266.0407 
  14   1.0000      -9.776792      -266.0400 
  15   1.0000      -9.776775      -266.0396 
  16   1.0000      -9.776752      -266.0389 
  17   1.0000      -3.068910       -83.5093 
  18   1.0000      -1.868325       -50.8397 
  19   1.0000      -1.826193       -49.6932 
  20   1.0000      -1.826005       -49.6881 
  21   1.0000      -0.482340       -13.1251 
  22   1.0000      -0.479252       -13.0411 
  23   1.0000      -0.479216       -13.0401 
  24   1.0000      -0.478692       -13.0259 
  25   1.0000      -0.478034       -13.0080 
  26   1.0000      -0.477994       -13.0069 
  27   1.0000      -0.097547        -2.6544 
  28   1.0000      -0.008933        -0.2431 
  29   1.0000      -0.008865        -0.2412 
  30   1.0000      -0.007431        -0.2022 
  31   1.0000      -0.007393        -0.2012 
  32   1.0000      -0.002508        -0.0683 
  33   1.0000       0.039722         1.0809 
  34   1.0000       0.050942         1.3862 
  35   1.0000       0.050973         1.3870 
  36   1.0000       0.068450         1.8626 
  37   1.0000       0.072162         1.9636 
  38   1.0000       0.072173         1.9639 
  39   1.0000       0.072291         1.9671 
  40   1.0000       0.075584         2.0568 
  41   1.0000       0.075620         2.0577 
  42   1.0000       0.094933         2.5833 
  43   1.0000       0.096936         2.6378 
  44   1.0000       0.096954         2.6383 
  45   1.0000       0.108103         2.9416 
  46   1.0000       0.108129         2.9423 
  47   1.0000       0.108915         2.9637 
  48   1.0000       0.123572         3.3626 
  49   1.0000       0.123970         3.3734 
  50   1.0000       0.124031         3.3750 
  51   1.0000       0.130446         3.5496 
  52   1.0000       0.156473         4.2578 
  53   1.0000       0.156490         4.2583 
  54   0.0000       0.405372        11.0307 
  55   0.0000       0.405468        11.0334 
  56   0.0000       0.448375        12.2009 
  57   0.0000       0.451670        12.2906 
  58   0.0000       0.451707        12.2916 
  59   0.0000       0.459446        12.5022 
  60   0.0000       0.465137        12.6570 
  61   0.0000       0.468269        12.7422 
  62   0.0000       0.468280        12.7425 
  63   0.0000       0.479673        13.0526 
  64   0.0000       0.479695        13.0532 
  65   0.0000       0.481216        13.0946 
  66   0.0000       0.490703        13.3527 
  67   0.0000       0.498023        13.5519 
  68   0.0000       0.498072        13.5532 
  69   0.0000       0.539625        14.6840 
  70   0.0000       0.539648        14.6846 
  71   0.0000       0.540311        14.7026 
  72   0.0000       0.818545        22.2738 
  73   0.0000       0.839612        22.8470 
  74   0.0000       0.839649        22.8480 
  75   0.0000       0.859031        23.3754 
  76   0.0000       0.859092        23.3771 
  77   0.0000       0.862687        23.4749 
  78   0.0000       0.955074        25.9889 
  79   0.0000       0.955096        25.9895 
  80   0.0000       0.955471        25.9997 
  81   0.0000       0.980959        26.6933 
  82   0.0000       1.012344        27.5473 
  83   0.0000       1.012432        27.5497 
  84   0.0000       1.020103        27.7584 
  85   0.0000       1.056202        28.7407 
  86   0.0000       1.056419        28.7466 
  87   0.0000       1.056543        28.7500 
  88   0.0000       1.057158        28.7667 
  89   0.0000       1.060772        28.8651 
  90   0.0000       1.060789        28.8655 
  91   0.0000       1.079484        29.3742 
  92   0.0000       1.079504        29.3748 
  93   0.0000       1.087350        29.5883 
  94   0.0000       1.087373        29.5889 
  95   0.0000       1.092675        29.7332 
  96   0.0000       1.131169        30.7807 
  97   0.0000       1.131210        30.7818 
  98   0.0000       1.131677        30.7945 
  99   0.0000       1.149881        31.2898 
 100   0.0000       1.208548        32.8863 
 101   0.0000       1.210811        32.9478 
 102   0.0000       1.210829        32.9483 
 103   0.0000       1.263665        34.3861 
 104   0.0000       1.263683        34.3866 
 105   0.0000       1.265594        34.4386 
 106   0.0000       1.265624        34.4394 
 107   0.0000       1.267442        34.4888 
 108   0.0000       1.270725        34.5782 
 109   0.0000       1.276296        34.7298 
 110   0.0000       1.279536        34.8180 
 111   0.0000       1.279571        34.8189 
 112   0.0000       1.398573        38.0571 
 113   0.0000       1.414930        38.5022 
 114   0.0000       1.415119        38.5073 
 115   0.0000       1.454371        39.5754 
 116   0.0000       1.454399        39.5762 
 117   0.0000       1.454717        39.5849 
 118   0.0000       1.525654        41.5151 
 119   0.0000       1.571876        42.7729 
 120   0.0000       1.571910        42.7738 
 121   0.0000       1.575400        42.8688 
 122   0.0000       1.596214        43.4352 
 123   0.0000       1.596322        43.4381 
 124   0.0000       1.856360        50.5141 
 125   0.0000       1.856768        50.5252 
 126   0.0000       1.911334        52.0100 
 127   0.0000       2.072284        56.3897 
 128   0.0000       2.072456        56.3944 
 129   0.0000       2.094206        56.9863 
 130   0.0000       2.212618        60.2084 
 131   0.0000       2.212734        60.2115 
 132   0.0000       2.288586        62.2756 
 133   0.0000       2.289021        62.2874 
 134   0.0000       2.293351        62.4053 
 135   0.0000       2.512171        68.3596 
 136   0.0000       2.515511        68.4505 
 137   0.0000       2.515721        68.4562 
 138   0.0000       4.644654       126.3875 
 139   0.0000       5.457422       148.5040 
 140   0.0000       5.486748       149.3020 
 141   0.0000       5.486768       149.3025 
 142   0.0000       5.901863       160.5979 
 143   0.0000       5.902032       160.6025 
 144   0.0000       6.413644       174.5241 
 145   0.0000       6.421866       174.7479 
 146   0.0000       6.421913       174.7491 
 147   0.0000       6.453763       175.6158 
 148   0.0000       6.485561       176.4811 
 149   0.0000       6.490911       176.6267 
 150   0.0000       6.490949       176.6277 
 151   0.0000       9.904261       269.5086 
 152   0.0000       9.962037       271.0808 
 153   0.0000       9.962307       271.0881 
 154   0.0000      26.730845       727.3833 
 155   0.0000     168.404067      4582.5076 
 156   0.0000     216.885621      5901.7578 
 157   0.0000     216.912792      5902.4972 
 158   0.0000     216.912960      5902.5017 
 159   0.0000     722.807271     19668.5858 
 160   0.0000    2455.087442     66806.3257 
 161   0.0000    8072.419671    219661.7066 
 162   0.0000   28474.513639    774830.9078 
 163   0.0000   117241.454407   3190302.1663 
 164   0.0000   597781.615781   16266464.7365 
 165   0.0000   2211675.350426   60182745.9168 
 166   0.0000   6563630.033957   178605453.3498 
 167   0.0000   18768449.746018   510715481.8625 

                 SPIN DOWN ORBITALS
  NO   OCC          E(Eh)            E(eV) 
   0   1.0000    -255.665960     -6957.0245 
   1   1.0000     -29.617785      -805.9409 
   2   1.0000     -25.483706      -693.4469 
   3   1.0000     -25.478542      -693.3064 
   4   1.0000     -25.478513      -693.3056 
   5   1.0000     -13.895281      -378.1098 
   6   1.0000     -13.895275      -378.1096 
   7   1.0000     -13.895267      -378.1094 
   8   1.0000     -13.895257      -378.1092 
   9   1.0000     -13.895229      -378.1084 
  10   1.0000     -13.895217      -378.1081 
  11   1.0000      -9.777642      -266.0632 
  12   1.0000      -9.777623      -266.0626 
  13   1.0000      -9.777598      -266.0620 
  14   1.0000      -9.777574      -266.0613 
  15   1.0000      -9.777557      -266.0608 
  16   1.0000      -9.777532      -266.0602 
  17   1.0000      -3.017324       -82.1056 
  18   1.0000      -1.786670       -48.6178 
  19   1.0000      -1.786647       -48.6171 
  20   1.0000      -1.784110       -48.5481 
  21   1.0000      -0.481875       -13.1125 
  22   1.0000      -0.478759       -13.0277 
  23   1.0000      -0.478726       -13.0268 
  24   1.0000      -0.478180       -13.0119 
  25   1.0000      -0.477519       -12.9940 
  26   1.0000      -0.477482       -12.9930 
  27   1.0000      -0.097381        -2.6499 
  28   1.0000      -0.010328        -0.2810 
  29   1.0000      -0.010257        -0.2791 
  30   1.0000      -0.003526        -0.0960 
  31   1.0000      -0.003482        -0.0948 
  32   1.0000      -0.002559        -0.0696 
  33   1.0000       0.054781         1.4907 
  34   1.0000       0.054808         1.4914 
  35   1.0000       0.066715         1.8154 
  36   1.0000       0.069120         1.8808 
  37   1.0000       0.072344         1.9686 
  38   1.0000       0.072353         1.9688 
  39   1.0000       0.073227         1.9926 
  40   1.0000       0.080140         2.1807 
  41   1.0000       0.080179         2.1818 
  42   1.0000       0.094639         2.5753 
  43   1.0000       0.098386         2.6772 
  44   1.0000       0.098405         2.6777 
  45   1.0000       0.108764         2.9596 
  46   1.0000       0.109757         2.9866 
  47   1.0000       0.109771         2.9870 
  48   1.0000       0.123120         3.3503 
  49   1.0000       0.123182         3.3520 
  50   1.0000       0.131387         3.5752 
  51   1.0000       0.178395         4.8544 
  52   1.0000       0.178409         4.8548 
  53   0.0000       0.307945         8.3796 
  54   0.0000       0.425317        11.5735 
  55   0.0000       0.425421        11.5763 
  56   0.0000       0.455727        12.4010 
  57   0.0000       0.455732        12.4011 
  58   0.0000       0.459877        12.5139 
  59   0.0000       0.465535        12.6678 
  60   0.0000       0.468175        12.7397 
  61   0.0000       0.468183        12.7399 
  62   0.0000       0.478972        13.0335 
  63   0.0000       0.478993        13.0341 
  64   0.0000       0.480363        13.0713 
  65   0.0000       0.480957        13.0875 
  66   0.0000       0.489505        13.3201 
  67   0.0000       0.497589        13.5401 
  68   0.0000       0.497639        13.5415 
  69   0.0000       0.538732        14.6596 
  70   0.0000       0.538752        14.6602 
  71   0.0000       0.539014        14.6673 
  72   0.0000       0.823715        22.4144 
  73   0.0000       0.840512        22.8715 
  74   0.0000       0.840547        22.8724 
  75   0.0000       0.860058        23.4034 
  76   0.0000       0.860120        23.4051 
  77   0.0000       0.865371        23.5479 
  78   0.0000       0.954114        25.9628 
  79   0.0000       0.954138        25.9634 
  80   0.0000       0.954468        25.9724 
  81   0.0000       0.990456        26.9517 
  82   0.0000       1.014488        27.6056 
  83   0.0000       1.014555        27.6074 
  84   0.0000       1.022887        27.8342 
  85   0.0000       1.055628        28.7251 
  86   0.0000       1.055764        28.7288 
  87   0.0000       1.055825        28.7305 
  88   0.0000       1.057074        28.7644 
  89   0.0000       1.060525        28.8583 
  90   0.0000       1.060548        28.8590 
  91   0.0000       1.079590        29.3771 
  92   0.0000       1.079610        29.3777 
  93   0.0000       1.087160        29.5831 
  94   0.0000       1.087182        29.5837 
  95   0.0000       1.092710        29.7342 
  96   0.0000       1.131850        30.7992 
  97   0.0000       1.132427        30.8149 
  98   0.0000       1.132459        30.8158 
  99   0.0000       1.148886        31.2628 
 100   0.0000       1.212151        32.9843 
 101   0.0000       1.212165        32.9847 
 102   0.0000       1.214225        33.0408 
 103   0.0000       1.264096        34.3978 
 104   0.0000       1.264113        34.3983 
 105   0.0000       1.266251        34.4564 
 106   0.0000       1.266278        34.4572 
 107   0.0000       1.269738        34.5513 
 108   0.0000       1.272906        34.6375 
 109   0.0000       1.276153        34.7259 
 110   0.0000       1.280371        34.8407 
 111   0.0000       1.280404        34.8416 
 112   0.0000       1.399164        38.0732 
 113   0.0000       1.414756        38.4975 
 114   0.0000       1.414943        38.5026 
 115   0.0000       1.453834        39.5608 
 116   0.0000       1.453861        39.5616 
 117   0.0000       1.454217        39.5713 
 118   0.0000       1.540557        41.9207 
 119   0.0000       1.579398        42.9776 
 120   0.0000       1.579422        42.9782 
 121   0.0000       1.597475        43.4695 
 122   0.0000       1.597577        43.4723 
 123   0.0000       1.614037        43.9202 
 124   0.0000       1.855975        50.5036 
 125   0.0000       1.856387        50.5148 
 126   0.0000       1.912354        52.0378 
 127   0.0000       2.078202        56.5507 
 128   0.0000       2.078379        56.5556 
 129   0.0000       2.095917        57.0328 
 130   0.0000       2.216711        60.3198 
 131   0.0000       2.216823        60.3228 
 132   0.0000       2.290785        62.3354 
 133   0.0000       2.291199        62.3467 
 134   0.0000       2.301751        62.6338 
 135   0.0000       2.527418        68.7745 
 136   0.0000       2.527616        68.7799 
 137   0.0000       2.534494        68.9671 
 138   0.0000       4.675033       127.2141 
 139   0.0000       5.507593       149.8692 
 140   0.0000       5.507614       149.8698 
 141   0.0000       5.543328       150.8416 
 142   0.0000       5.922141       161.1496 
 143   0.0000       5.922329       161.1548 
 144   0.0000       6.481562       176.3723 
 145   0.0000       6.481624       176.3740 
 146   0.0000       6.491812       176.6512 
 147   0.0000       6.492237       176.6627 
 148   0.0000       6.510014       177.1465 
 149   0.0000       6.510029       177.1469 
 150   0.0000       6.543082       178.0463 
 151   0.0000       9.955372       270.8995 
 152   0.0000       9.987099       271.7628 
 153   0.0000       9.987271       271.7675 
 154   0.0000      26.761016       728.2043 
 155   0.0000     168.413259      4582.7578 
 156   0.0000     216.891150      5901.9082 
 157   0.0000     216.915519      5902.5714 
 158   0.0000     216.915678      5902.5757 
 159   0.0000     722.809293     19668.6408 
 160   0.0000    2455.087881     66806.3376 
 161   0.0000    8072.419730    219661.7082 
 162   0.0000   28474.513596    774830.9066 
 163   0.0000   117241.454346   3190302.1646 
 164   0.0000   597781.615754   16266464.7357 
 165   0.0000   2211675.350432   60182745.9169 
 166   0.0000   6563630.034014   178605453.3513 
 167   0.0000   18768449.746119   510715481.8653 

                    ********************************
                    * MULLIKEN POPULATION ANALYSIS *
                    ********************************

--------------------------------------------
MULLIKEN ATOMIC CHARGES AND SPIN POPULATIONS
--------------------------------------------
   0 Fe:   -0.881727    1.135005
   1 C :    0.205494   -0.054357
   2 C :    0.205463   -0.054356
   3 C :    0.205458   -0.054348
   4 C :    0.205430   -0.054359
   5 C :    0.205488   -0.054241
   6 C :    0.205522   -0.054230
   7 N :   -0.558505    0.031881
   8 N :   -0.558492    0.031879
   9 N :   -0.558506    0.031868
  10 N :   -0.558500    0.031887
  11 N :   -0.558553    0.031694
  12 N :   -0.558573    0.031676
Sum of atomic charges         :   -3.0000000
Sum of atomic spin populations:    1.0000000

-----------------------------------------------------
MULLIKEN REDUCED ORBITAL CHARGES AND SPIN POPULATIONS
-----------------------------------------------------
CHARGE
  0 Fes       :     6.958668  s :     6.958668
      pz      :     4.512450  p :    13.537110
      px      :     4.512336
      py      :     4.512323
      dz2     :     0.861481  d :     6.385481
      dxz     :     1.555266
      dyz     :     1.554777
      dx2y2   :     0.861795
      dxy     :     1.552163
      f0      :     0.000124  f :     0.000468
      f+1     :     0.000061
      f-1     :     0.000061
      f+2     :     0.000023
      f-2     :     0.000028
      f+3     :     0.000086
      f-3     :     0.000086
  1 C s       :     3.314899  s :     3.314899
      pz      :     0.822192  p :     2.479606
      px      :     0.835180
      py      :     0.822234
  2 C s       :     3.314898  s :     3.314898
      pz      :     0.822212  p :     2.479639
      px      :     0.835201
      py      :     0.822226
  3 C s       :     3.314961  s :     3.314961
      pz      :     0.822198  p :     2.479581
      px      :     0.822204
      py      :     0.835179
  4 C s       :     3.314965  s :     3.314965
      pz      :     0.822185  p :     2.479605
      px      :     0.822226
      py      :     0.835194
  5 C s       :     3.314929  s :     3.314929
      pz      :     0.835157  p :     2.479583
      px      :     0.822202
      py      :     0.822225
  6 C s       :     3.314938  s :     3.314938
      pz      :     0.835129  p :     2.479540
      px      :     0.822203
      py      :     0.822209
  7 N s       :     3.817156  s :     3.817156
      pz      :     1.199896  p :     3.741350
      px      :     1.341751
      py      :     1.199703
  8 N s       :     3.817146  s :     3.817146
      pz      :     1.199884  p :     3.741346
      px      :     1.341755
      py      :     1.199708
  9 N s       :     3.817158  s :     3.817158
      pz      :     1.199862  p :     3.741348
      px      :     1.199723
      py      :     1.341763
 10 N s       :     3.817161  s :     3.817161
      pz      :     1.199870  p :     3.741338
      px      :     1.199704
      py      :     1.341764
 11 N s       :     3.817099  s :     3.817099
      pz      :     1.341753  p :     3.741455
      px      :     1.199875
      py      :     1.199826
 12 N s       :     3.817107  s :     3.817107
      pz      :     1.341750  p :     3.741466
      px      :     1.199880
      py      :     1.199836

SPIN
  0 Fes       :     0.034233  s :     0.034233
      pz      :     0.015400  p :     0.046295
      px      :     0.015450
      py      :     0.015444
      dz2     :     0.047478  d :     1.054449
      dxz     :     0.318578
      dyz     :     0.319108
      dx2y2   :     0.047360
      dxy     :     0.321925
      f0      :     0.000011  f :     0.000028
      f+1     :     0.000001
      f-1     :     0.000001
      f+2     :    -0.000005
      f-2     :     0.000010
      f+3     :     0.000005
      f-3     :     0.000005
  1 C s       :    -0.016566  s :    -0.016566
      pz      :    -0.011090  p :    -0.037791
      px      :    -0.015546
      py      :    -0.011155
  2 C s       :    -0.016565  s :    -0.016565
      pz      :    -0.011089  p :    -0.037791
      px      :    -0.015547
      py      :    -0.011155
  3 C s       :    -0.016564  s :    -0.016564
      pz      :    -0.011092  p :    -0.037784
      px      :    -0.011145
      py      :    -0.015546
  4 C s       :    -0.016565  s :    -0.016565
      pz      :    -0.011096  p :    -0.037794
      px      :    -0.011150
      py      :    -0.015548
  5 C s       :    -0.016545  s :    -0.016545
      pz      :    -0.015535  p :    -0.037697
      px      :    -0.011074
      py      :    -0.011087
  6 C s       :    -0.016544  s :    -0.016544
      pz      :    -0.015533  p :    -0.037686
      px      :    -0.011068
      py      :    -0.011084
  7 N s       :     0.002920  s :     0.002920
      pz      :     0.015254  p :     0.028961
      px      :    -0.001714
      py      :     0.015421
  8 N s       :     0.002918  s :     0.002918
      pz      :     0.015250  p :     0.028961
      px      :    -0.001714
      py      :     0.015424
  9 N s       :     0.002918  s :     0.002918
      pz      :     0.015263  p :     0.028951
      px      :     0.015403
      py      :    -0.001715
 10 N s       :     0.002919  s :     0.002919
      pz      :     0.015271  p :     0.028968
      px      :     0.015411
      py      :    -0.001714
 11 N s       :     0.002904  s :     0.002904
      pz      :    -0.001718  p :     0.028789
      px      :     0.015241
      py      :     0.015266
 12 N s       :     0.002904  s :     0.002904
      pz      :    -0.001719  p :     0.028772
      px      :     0.015226
      py      :     0.015265


                     *******************************
                     * LOEWDIN POPULATION ANALYSIS *
                     *******************************

-------------------------------------------
LOEWDIN ATOMIC CHARGES AND SPIN POPULATIONS
-------------------------------------------
   0 Fe:   -1.074477    1.057815
   1 C :    0.010950   -0.036358
   2 C :    0.010944   -0.036356
   3 C :    0.010912   -0.036357
   4 C :    0.010911   -0.036363
   5 C :    0.010946   -0.036279
   6 C :    0.010948   -0.036273
   7 N :   -0.331831    0.026753
   8 N :   -0.331825    0.026754
   9 N :   -0.331815    0.026743
  10 N :   -0.331813    0.026761
  11 N :   -0.331921    0.026589
  12 N :   -0.331930    0.026572

----------------------------------------------------
LOEWDIN REDUCED ORBITAL CHARGES AND SPIN POPULATIONS
----------------------------------------------------
CHARGE
  0 Fes       :     6.542933  s :     6.542933
      pz      :     4.642793  p :    13.928303
      px      :     4.642788
      py      :     4.642722
      dz2     :     0.957634  d :     6.602679
      dxz     :     1.563580
      dyz     :     1.563091
      dx2y2   :     0.957910
      dxy     :     1.560463
      f0      :     0.000155  f :     0.000562
      f+1     :     0.000073
      f-1     :     0.000072
      f+2     :     0.000023
      f-2     :     0.000028
      f+3     :     0.000105
      f-3     :     0.000105
  1 C s       :     3.115173  s :     3.115173
      pz      :     0.837407  p :     2.873877
      px      :     1.199021
      py      :     0.837449
  2 C s       :     3.115167  s :     3.115167
      pz      :     0.837414  p :     2.873888
      px      :     1.199027
      py      :     0.837448
  3 C s       :     3.115223  s :     3.115223
      pz      :     0.837413  p :     2.873865
      px      :     0.837433
      py      :     1.199019
  4 C s       :     3.115225  s :     3.115225
      pz      :     0.837406  p :     2.873864
      px      :     0.837438
      py      :     1.199021
  5 C s       :     3.115176  s :     3.115176
      pz      :     1.199001  p :     2.873878
      px      :     0.837432
      py      :     0.837445
  6 C s       :     3.115185  s :     3.115185
      pz      :     1.198992  p :     2.873867
      px      :     0.837432
      py      :     0.837443
  7 N s       :     3.460547  s :     3.460547
      pz      :     1.190976  p :     3.871284
      px      :     1.489522
      py      :     1.190786
  8 N s       :     3.460540  s :     3.460540
      pz      :     1.190968  p :     3.871285
      px      :     1.489528
      py      :     1.190789
  9 N s       :     3.460544  s :     3.460544
      pz      :     1.190938  p :     3.871271
      px      :     1.190797
      py      :     1.489536
 10 N s       :     3.460550  s :     3.460550
      pz      :     1.190945  p :     3.871263
      px      :     1.190783
      py      :     1.489534
 11 N s       :     3.460543  s :     3.460543
      pz      :     1.489511  p :     3.871377
      px      :     1.190956
      py      :     1.190910
 12 N s       :     3.460548  s :     3.460548
      pz      :     1.489506  p :     3.871382
      px      :     1.190960
      py      :     1.190916

SPIN
  0 Fes       :     0.004868  s :     0.004868
      pz      :     0.004117  p :     0.012372
      px      :     0.004126
      py      :     0.004128
      dz2     :     0.041672  d :     1.040551
      dxz     :     0.317814
      dyz     :     0.318344
      dx2y2   :     0.041559
      dxy     :     0.321162
      f0      :     0.000010  f :     0.000024
      f+1     :     0.000000
      f-1     :     0.000000
      f+2     :    -0.000005
      f-2     :     0.000010
      f+3     :     0.000004
      f-3     :     0.000004
  1 C s       :    -0.009318  s :    -0.009318
      pz      :    -0.009397  p :    -0.027040
      px      :    -0.008188
      py      :    -0.009454
  2 C s       :    -0.009317  s :    -0.009317
      pz      :    -0.009397  p :    -0.027039
      px      :    -0.008188
      py      :    -0.009454
  3 C s       :    -0.009320  s :    -0.009320
      pz      :    -0.009400  p :    -0.027037
      px      :    -0.009446
      py      :    -0.008191
  4 C s       :    -0.009320  s :    -0.009320
      pz      :    -0.009403  p :    -0.027044
      px      :    -0.009451
      py      :    -0.008190
  5 C s       :    -0.009313  s :    -0.009313
      pz      :    -0.008190  p :    -0.026966
      px      :    -0.009383
      py      :    -0.009394
  6 C s       :    -0.009313  s :    -0.009313
      pz      :    -0.008191  p :    -0.026960
      px      :    -0.009378
      py      :    -0.009391
  7 N s       :     0.000258  s :     0.000258
      pz      :     0.014149  p :     0.026496
      px      :    -0.001962
      py      :     0.014308
  8 N s       :     0.000258  s :     0.000258
      pz      :     0.014146  p :     0.026496
      px      :    -0.001961
      py      :     0.014312
  9 N s       :     0.000257  s :     0.000257
      pz      :     0.014157  p :     0.026486
      px      :     0.014290
      py      :    -0.001962
 10 N s       :     0.000258  s :     0.000258
      pz      :     0.014166  p :     0.026503
      px      :     0.014299
      py      :    -0.001962
 11 N s       :     0.000254  s :     0.000254
      pz      :    -0.001964  p :     0.026335
      px      :     0.014138
      py      :     0.014162
 12 N s       :     0.000254  s :     0.000254
      pz      :    -0.001965  p :     0.026318
      px      :     0.014122
      py      :     0.014161


                      *****************************
                      * MAYER POPULATION ANALYSIS *
                      *****************************

  NA   - Mulliken gross atomic population
  ZA   - Total nuclear charge
  QA   - Mulliken gross atomic charge
  VA   - Mayer's total valence
  BVA  - Mayer's bonded valence
  FA   - Mayer's free valence

  ATOM       NA         ZA         QA         VA         BVA        FA
  0 Fe    26.8817    26.0000    -0.8817     7.1078     6.2582     0.8496
  1 C      5.7945     6.0000     0.2055     3.6003     3.5993     0.0010
  2 C      5.7945     6.0000     0.2055     3.6003     3.5993     0.0010
  3 C      5.7945     6.0000     0.2055     3.6002     3.5992     0.0010
  4 C      5.7946     6.0000     0.2054     3.6002     3.5992     0.0010
  5 C      5.7945     6.0000     0.2055     3.6003     3.5993     0.0010
  6 C      5.7945     6.0000     0.2055     3.6003     3.5993     0.0010
  7 N      7.5585     7.0000    -0.5585     2.8286     2.8277     0.0009
  8 N      7.5585     7.0000    -0.5585     2.8286     2.8277     0.0009
  9 N      7.5585     7.0000    -0.5585     2.8286     2.8277     0.0009
 10 N      7.5585     7.0000    -0.5585     2.8286     2.8277     0.0009
 11 N      7.5586     7.0000    -0.5586     2.8286     2.8277     0.0009
 12 N      7.5586     7.0000    -0.5586     2.8286     2.8277     0.0009

  Mayer bond orders larger than 0.100000
B(  0-Fe,  1-C ) :   0.8938 B(  0-Fe,  2-C ) :   0.8938 B(  0-Fe,  3-C ) :   0.8936 
B(  0-Fe,  4-C ) :   0.8936 B(  0-Fe,  5-C ) :   0.8938 B(  0-Fe,  6-C ) :   0.8938 
B(  0-Fe,  7-N ) :   0.1493 B(  0-Fe,  8-N ) :   0.1493 B(  0-Fe,  9-N ) :   0.1493 
B(  0-Fe, 10-N ) :   0.1493 B(  0-Fe, 11-N ) :   0.1494 B(  0-Fe, 12-N ) :   0.1493 
B(  1-C ,  7-N ) :   2.6429 B(  2-C ,  8-N ) :   2.6429 B(  3-C ,  9-N ) :   2.6430 
B(  4-C , 10-N ) :   2.6430 B(  5-C , 11-N ) :   2.6429 B(  6-C , 12-N ) :   2.6429 


-------
TIMINGS
-------

Total SCF time: 0 days 0 hours 0 min 21 sec 

Total time                  ....      21.278 sec
Sum of individual times     ....      20.945 sec  ( 98.4%)

Fock matrix formation       ....      18.512 sec  ( 87.0%)
  XC integration            ....       4.114 sec  ( 22.2% of F)
    Basis function eval.    ....       1.176 sec  ( 28.6% of XC)
    Density eval.           ....       0.888 sec  ( 21.6% of XC)
    XC-Functional eval.     ....       0.446 sec  ( 10.8% of XC)
    XC-Potential eval.      ....       0.834 sec  ( 20.3% of XC)
Diagonalization             ....       0.328 sec  (  1.5%)
Density matrix formation    ....       0.039 sec  (  0.2%)
Population analysis         ....       0.010 sec  (  0.0%)
Initial guess               ....       0.199 sec  (  0.9%)
Orbital Transformation      ....       0.000 sec  (  0.0%)
Orbital Orthonormalization  ....       0.000 sec  (  0.0%)
DIIS solution               ....       0.111 sec  (  0.5%)
Grid generation             ....       1.747 sec  (  8.2%)

-------------------------   --------------------
FINAL SINGLE POINT ENERGY     -1820.154074597336
-------------------------   --------------------


                            ***************************************
                            *     ORCA property calculations      *
                            ***************************************

                                    ---------------------
                                    Active property flags
                                    ---------------------
   (+) Dipole Moment
   (+) Nuclear properties (Hyperfine,Quadrupole)


------------------------------------------------------------------------------
                       ORCA ELECTRIC PROPERTIES CALCULATION
------------------------------------------------------------------------------

Dipole Moment Calculation                       ... on
Quadrupole Moment Calculation                   ... off
Polarizability Calculation                      ... off
GBWName                                         ... fe3cn6.gbw
Electron density file                           ... fe3cn6.scfp
The origin for moment calculation is the CENTER OF MASS  = (-0.000007, -0.000010  0.000016)

-------------
DIPOLE MOMENT
-------------
                                X             Y             Z
Electronic contribution:     -0.00004       0.00008       0.00011
Nuclear contribution   :      0.00005       0.00005      -0.00011
                        -----------------------------------------
Total Dipole Moment    :      0.00001       0.00013      -0.00000
                        -----------------------------------------
Magnitude (a.u.)       :      0.00013
Magnitude (Debye)      :      0.00033



--------------------
Rotational spectrum 
--------------------
 
Rotational constants in cm-1:     0.023573     0.023566     0.022550 
Rotational constants in MHz :   706.695549   706.491339   676.027389 

 Dipole components along the rotational axes: 
x,y,z [a.u.] :     0.000083    -0.000063    -0.000081 
x,y,z [Debye]:     0.000210    -0.000160    -0.000206 

 


           ************************************************************
           *        Program running with 16 parallel MPI-processes    *
           *              working on a common directory               *
           ************************************************************
------------------------------------------------------------------------------
                                ORCA EPR/NMR CALCULATION
------------------------------------------------------------------------------

GBWName                      ... fe3cn6.gbw
Electron density file        ... fe3cn6.scfp
Spin density file            ... fe3cn6.scfr
Multiplicity                 ... 2
g-tensor                     ... 0
NMR chemical shifts          ... 0
Number of nuclei for epr/nmr ... 1
   Nucleus:   0Fe
       Hyperfine : Isotope=   57 I=   0.500 P=  17.280
       Quadrupole: Isotope=   57 I=   0.500 Q=   0.160
       Spin-Orbit: Zeff=  13.910
       Ncuelar Spin-Spin: Gn=   0.000
       rho(0)=Y f(grad)=Y a(iso)=N a(dip)=N a(orb)=N sigma(nmr)=N spin-spin(nmr)=all-N,DSO-N,PSO-N,FC-N,SD-N

-----------------------------------------
ELECTRIC AND MAGNETIC HYPERFINE STRUCTURE
-----------------------------------------

 -----------------------------------------------------------
 Nucleus   0Fe: A:ISTP=   57 I=  0.5 P= 17.2798 MHz/au**3
                Q:ISTP=   57 I=  0.5 Q=  0.1600 barn     
 -----------------------------------------------------------
 Raw EFG matrix (all values in a.u.**-3):
             0.0014       0.6813      -0.6840
             0.6813       0.0057      -0.6822
            -0.6840      -0.6822      -0.0071

 V(El)      -0.7094      -0.7204       1.4298
 V(Nuc)      0.0322       0.0327      -0.0648
         ----------   ----------   ----------
 V(Tot)     -0.6772      -0.6878       1.3650 
 Orientation: 
  X       0.6009093    0.5522956   -0.5778215
  Y      -0.7788820    0.2421738   -0.5785281
  Z      -0.1795853    0.7976976    0.5756975

Note: Tensor is right-handed

Moessbauer quadrupole splitting parameter (proper coordinate system)
 e**2qQ  =   51.316 MHz =    4.424 mm/s
 eta     =  0.008
 Delta-EQ=(1/2{e**2qQ}*sqrt(1+1/3*eta**2) =   25.658 MHz =    2.212 mm/s
 RHO(0)=  11817.880207599 a.u.**-3


------------------------------------------------------------------------------- 

Timings for individual modules:

Sum of individual times         ...       22.661 sec (=   0.378 min)
GTO integral calculation        ...        0.707 sec (=   0.012 min)   3.1 %
SCF iterations                  ...       21.527 sec (=   0.359 min)  95.0 %
EPR/NMR calculation             ...        0.427 sec (=   0.007 min)   1.9 %
                             ****ORCA TERMINATED NORMALLY****
TOTAL RUN TIME: 0 days 0 hours 0 minutes 22 seconds 997 msec
