
                                 *****************
                                 * O   R   C   A *
                                 *****************

           --- An Ab Initio, DFT and Semiempirical electronic structure package ---

                  #######################################################
                  #                        -***-                        #
                  #          Department of theory and spectroscopy      #
                  #               Directorship: Frank Neese             #
                  #        Max Planck Institute fuer Kohlenforschung    #
                  #                Kaiser Wilhelm Platz 1               #
                  #                 D-45470 Muelheim/Ruhr               #
                  #                      Germany                        #
                  #                                                     #
                  #                  All rights reserved                #
                  #                        -***-                        #
                  #######################################################


                         Program Version 4.2.1 -  RELEASE  -


 With contributions from (in alphabetic order):
   Daniel Aravena         : Magnetic Suceptibility
   Michael Atanasov       : Ab Initio Ligand Field Theory (pilot matlab implementation)
   Alexander A. Auer      : GIAO ZORA, VPT2
   Ute Becker             : Parallelization
   Giovanni Bistoni       : ED, misc. LED, open-shell LED, HFLD
   Martin Brehm           : Molecular dynamics
   Dmytro Bykov           : SCF Hessian
   Vijay G. Chilkuri      : MRCI spin determinant printing, contributions to CSF-ICE
   Dipayan Datta          : RHF DLPNO-CCSD density
   Achintya Kumar Dutta   : EOM-CC, STEOM-CC
   Dmitry Ganyushin       : Spin-Orbit,Spin-Spin,Magnetic field MRCI
   Miquel Garcia          : C-PCM Hessian, Gaussian charge scheme
   Yang Guo               : DLPNO-NEVPT2, CIM, IAO-localization
   Andreas Hansen         : Spin unrestricted coupled pair/coupled cluster methods
   Benjamin Helmich-Paris : CASSCF linear response (MC-RPA)
   Lee Huntington         : MR-EOM, pCC
   Robert Izsak           : Overlap fitted RIJCOSX, COSX-SCS-MP3, EOM
   Christian Kollmar      : KDIIS, OOCD, Brueckner-CCSD(T), CCSD density
   Simone Kossmann        : Meta GGA functionals, TD-DFT gradient, OOMP2, MP2 Hessian
   Martin Krupicka        : AUTO-CI
   Lucas Lang             : DCDCAS
   Dagmar Lenk            : GEPOL surface, SMD
   Dimitrios Liakos       : Extrapolation schemes; Compound Job, initial MDCI parallelization
   Dimitrios Manganas     : Further ROCIS development; embedding schemes
   Dimitrios Pantazis     : SARC Basis sets
   Taras Petrenko         : DFT Hessian,TD-DFT gradient, ASA, ECA, R-Raman, ABS, FL, XAS/XES, NRVS
   Peter Pinski           : DLPNO-MP2, DLPNO-MP2 Gradient
   Christoph Reimann      : Effective Core Potentials
   Marius Retegan         : Local ZFS, SOC
   Christoph Riplinger    : Optimizer, TS searches, QM/MM, DLPNO-CCSD(T), (RO)-DLPNO pert. Triples
   Tobias Risthaus        : Range-separated hybrids, TD-DFT gradient, RPA, STAB
   Michael Roemelt        : Original ROCIS implementation
   Masaaki Saitow         : Open-shell DLPNO-CCSD energy and density
   Barbara Sandhoefer     : DKH picture change effects
   Avijit Sen             : IP-ROCIS
   Kantharuban Sivalingam : CASSCF convergence, NEVPT2, FIC-MRCI
   Bernardo de Souza      : ESD, SOC TD-DFT
   Georgi Stoychev        : AutoAux, RI-MP2 NMR
   Willem Van den Heuvel  : Paramagnetic NMR
   Boris Wezisla          : Elementary symmetry handling
   Frank Wennmohs         : Technical directorship


 We gratefully acknowledge several colleagues who have allowed us to
 interface, adapt or use parts of their codes:
   Stefan Grimme, W. Hujo, H. Kruse,             : VdW corrections, initial TS optimization,
                  C. Bannwarth                     DFT functionals, gCP, sTDA/sTD-DF
   Ed Valeev, F. Pavosevic, A. Kumar             : LibInt (2-el integral package), F12 methods
   Garnet Chan, S. Sharma, J. Yang, R. Olivares  : DMRG
   Ulf Ekstrom                                   : XCFun DFT Library
   Mihaly Kallay                                 : mrcc  (arbitrary order and MRCC methods)
   Andreas Klamt, Michael Diedenhofen            : otool_cosmo (COSMO solvation model)
   Jiri Pittner, Ondrej Demel                    : Mk-CCSD
   Frank Weinhold                                : gennbo (NPA and NBO analysis)
   Christopher J. Cramer and Donald G. Truhlar   : smd solvation model
   Lars Goerigk                                  : TD-DFT with DH, B97 family of functionals
   V. Asgeirsson, H. Jonsson                     : NEB implementation
   FAccTs GmbH                                   : IRC, NEB, NEB-TS, Multilevel, MM, QM/MM, CI optimization
   S Lehtola, MJT Oliveira, MAL Marques          : LibXC Library


 Your calculation uses the libint2 library for the computation of 2-el integrals
 For citations please refer to: http://libint.valeyev.net

 Your ORCA version has been built with support for libXC version: 4.2.3
 For citations please refer to: https://tddft.org/programs/libxc/

 This ORCA versions uses:
   CBLAS   interface :  Fast vector & matrix operations
   LAPACKE interface :  Fast linear algebra routines
   SCALAPACK package :  Parallel linear algebra routines


----- Orbital basis set information -----
Your calculation utilizes the basis: 6-31G
   H-He, Li-Ne : W. J. Hehre, R. Ditchfield and J.A. Pople, J. Chem. Phys. 56, 2257 (1972).
                 Note: He and Ne are unpublished basis sets taken from the Gaussian program.
                 Note: Li and B from J. D. Dill and J. A. Pople, J. Chem. Phys. 62, 2921 (1975).
   Na - Ar     : M. M. Francl, W. J. Pietro, W. J. Hehre, J. S. Binkley, M. S. Gordon, 
                 D. J. DeFrees and J. A. Pople, J. Chem. Phys. 77, 3654 (1982).
   K - Zn      : V. A. Rassolov, J. A. Pople, M. A. Ratner, and T. L. Windus, J. Chem. Phys. 109, 1223 (1998).

================================================================================
                                        WARNINGS
                       Please study these warnings very carefully!
================================================================================


WARNING: your system is open-shell and RHF/RKS was chosen
  ===> : WILL SWITCH to UHF/UKS


INFO   : the flag for use of LIBINT has been found!

================================================================================
                                       INPUT FILE
================================================================================
NAME = fe2cl4.inp
|  1> ! DFT B3LYP 6-31g TightSCF Grid5 NoFinalGrid SlowConv
|  2> %pal
|  3> nprocs 16
|  4> end
|  5> %method SpecialGridAtoms 26
|  6> SpecialGridIntAcc 7
|  7> end
|  8> %basis NewGTO 26 "CP(PPP)" end
|  9> end
| 10> # [Fe(ll)(Cl)4]2-  s = 2
| 11> * xyz -2 5
| 12> Fe -0.005543 -0.010542  0.000078
| 13> Cl  2.340289 -0.142823  0.000187
| 14> Cl -0.915720  2.154368 -0.000255
| 15> Cl -0.709682 -1.000364 -2.005230
| 16> Cl -0.709344 -1.000639  2.005220
| 17> *
| 18> # Note that the EPR block needs to below the coordinate block for 
| 19> # the “all Fe” command (all irons) to be recognized. 
| 20> %eprnmr nuclei = all Fe {rho, fgrad}
| 21> end
| 22> 
| 23>                          ****END OF INPUT****
================================================================================

                       ****************************
                       * Single Point Calculation *
                       ****************************

---------------------------------
CARTESIAN COORDINATES (ANGSTROEM)
---------------------------------
  Fe    -0.005543   -0.010542    0.000078
  Cl     2.340289   -0.142823    0.000187
  Cl    -0.915720    2.154368   -0.000255
  Cl    -0.709682   -1.000364   -2.005230
  Cl    -0.709344   -1.000639    2.005220

----------------------------
CARTESIAN COORDINATES (A.U.)
----------------------------
  NO LB      ZA    FRAG     MASS         X           Y           Z
   0 Fe   26.0000    0    55.850   -0.010475   -0.019921    0.000147
   1 Cl   17.0000    0    35.453    4.422505   -0.269896    0.000353
   2 Cl   17.0000    0    35.453   -1.730460    4.071166   -0.000482
   3 Cl   17.0000    0    35.453   -1.341105   -1.890414   -3.789336
   4 Cl   17.0000    0    35.453   -1.340466   -1.890934    3.789317

--------------------------------
INTERNAL COORDINATES (ANGSTROEM)
--------------------------------
 Fe     0   0   0     0.000000000000     0.00000000     0.00000000
 Cl     1   0   0     2.349558691982     0.00000000     0.00000000
 Cl     1   2   0     2.348458556227   116.03046272     0.00000000
 Cl     1   2   3     2.344529696521   106.02918450   117.13170340
 Cl     1   2   3     2.344402345412   106.01637344   242.84579920

---------------------------
INTERNAL COORDINATES (A.U.)
---------------------------
 Fe     0   0   0     0.000000000000     0.00000000     0.00000000
 Cl     1   0   0     4.440022463419     0.00000000     0.00000000
 Cl     1   2   0     4.437943508134   116.03046272     0.00000000
 Cl     1   2   3     4.430519039270   106.02918450   117.13170340
 Cl     1   2   3     4.430278380552   106.01637344   242.84579920

---------------------
BASIS SET INFORMATION
---------------------
There are 2 groups of distinct atoms

 Group   1 Type Fe  : 17s11p5d1f contracted to 17s7p3d1f pattern {11111111111111111/3311111/311/1}
 Group   2 Type Cl  : 16s10p contracted to 4s3p pattern {6631/631}

Atom   0Fe   basis set group =>   1
Atom   1Cl   basis set group =>   2
Atom   2Cl   basis set group =>   2
Atom   3Cl   basis set group =>   2
Atom   4Cl   basis set group =>   2


           ************************************************************
           *        Program running with 16 parallel MPI-processes    *
           *              working on a common directory               *
           ************************************************************
------------------------------------------------------------------------------
                           ORCA GTO INTEGRAL CALCULATION
------------------------------------------------------------------------------

                         BASIS SET STATISTICS AND STARTUP INFO

 # of primitive gaussian shells          ...  138
 # of primitive gaussian functions       ...  266
 # of contracted shells                  ...   56
 # of contracted basis functions         ...  112
 Highest angular momentum                ...    3
 Maximum contraction depth               ...    6
 Integral package used                   ... LIBINT
 Integral threshhold            Thresh   ...  2.500e-11
 Primitive cut-off              TCut     ...  2.500e-12


------------------------------ INTEGRAL EVALUATION ----------------------------


 * One electron integrals 
 Pre-screening matrix                    ... done
 Shell pair data                         ... done (   0.001 sec)



           ************************************************************
           *        Program running with 16 parallel MPI-processes    *
           *              working on a common directory               *
           ************************************************************
-------------------------------------------------------------------------------
                                 ORCA SCF
-------------------------------------------------------------------------------

------------
SCF SETTINGS
------------
Hamiltonian:
 Density Functional     Method          .... DFT(GTOs)
 Exchange Functional    Exchange        .... B88
   X-Alpha parameter    XAlpha          ....  0.666667
   Becke's b parameter  XBeta           ....  0.004200
 Correlation Functional Correlation     .... LYP
 LDA part of GGA corr.  LDAOpt          .... VWN-5
 Gradients option       PostSCFGGA      .... off
 Hybrid DFT is turned on
   Fraction HF Exchange ScalHFX         ....  0.200000
   Scaling of DF-GGA-X  ScalDFX         ....  0.720000
   Scaling of DF-GGA-C  ScalDFC         ....  0.810000
   Scaling of DF-LDA-C  ScalLDAC        ....  1.000000
   Perturbative correction              ....  0.000000
   Density functional embedding theory  .... OFF
   NL short-range parameter             ....  4.800000


General Settings:
 Integral files         IntName         .... fe2cl4
 Hartree-Fock type      HFTyp           .... UHF
 Total Charge           Charge          ....   -2
 Multiplicity           Mult            ....    5
 Number of Electrons    NEL             ....   96
 Basis Dimension        Dim             ....  112
 Nuclear Repulsion      ENuc            ....    638.4620901932 Eh

Convergence Acceleration:
 DIIS                   CNVDIIS         .... on
   Start iteration      DIISMaxIt       ....     0
   Startup error        DIISStart       ....  0.200000
   # of expansion vecs  DIISMaxEq       ....     5
   Bias factor          DIISBfac        ....   1.050
   Max. coefficient     DIISMaxC        ....  10.000
 Newton-Raphson         CNVNR           .... off
 SOSCF                  CNVSOSCF        .... off
 Level Shifting         CNVShift        .... on
   Level shift para.    LevelShift      ....    0.2500
   Turn off err/grad.   ShiftErr        ....    0.0000
 Zerner damping         CNVZerner       .... off
 Static damping         CNVDamp         .... on
   Fraction old density DampFac         ....    0.8500
   Max. Damping (<1)    DampMax         ....    0.9800
   Min. Damping (>=0)   DampMin         ....    0.0000
   Turn off err/grad.   DampErr         ....    0.0300
 Fernandez-Rico         CNVRico         .... off

SCF Procedure:
 Maximum # iterations   MaxIter         ....   125
 SCF integral mode      SCFMode         .... Direct
   Integral package                     .... LIBINT
 Reset frequency        DirectResetFreq ....    20
 Integral Threshold     Thresh          ....  2.500e-11 Eh
 Primitive CutOff       TCut            ....  2.500e-12 Eh

Convergence Tolerance:
 Convergence Check Mode ConvCheckMode   .... Total+1el-Energy
 Convergence forced     ConvForced      .... 0
 Energy Change          TolE            ....  1.000e-08 Eh
 1-El. energy change                    ....  1.000e-05 Eh
 DIIS Error             TolErr          ....  5.000e-07


Diagonalization of the overlap matrix:
Smallest eigenvalue                        ... 6.281e-03
Time for diagonalization                   ...    0.004 sec
Threshold for overlap eigenvalues          ... 1.000e-08
Number of eigenvalues below threshold      ... 0
Time for construction of square roots      ...    0.003 sec
Total time needed                          ...    0.007 sec

-------------------
DFT GRID GENERATION
-------------------

General Integration Accuracy     IntAcc      ...  5.010
Radial Grid Type                 RadialGrid  ... Gauss-Chebyshev
Angular Grid (max. acc.)         AngularGrid ... Lebedev-434
Angular grid pruning method      GridPruning ... 3 (G Style)
Weight generation scheme         WeightScheme... Becke
Basis function cutoff            BFCut       ...    1.0000e-11
Integration weight cutoff        WCut        ...    1.0000e-14
Grids for H and He will be reduced by one unit

SpecialGrid => Setting IntAcc for atom type =  26 to   7.0000
# of grid points (after initial pruning)     ...  72102 (   0.0 sec)
# of grid points (after weights+screening)   ...  71099 (   0.0 sec)
nearest neighbour list constructed           ...    0.0 sec
Grid point re-assignment to atoms done       ...    0.0 sec
Grid point division into batches done        ...    0.9 sec
Reduced shell lists constructed in    1.0 sec

Total number of grid points                  ...    71099
Total number of batches                      ...     1113
Average number of points per batch           ...       63
Average number of grid points per atom       ...    14220
Average number of shells per batch           ...    31.63 (56.49%)
Average number of basis functions per batch  ...    77.41 (69.11%)
Average number of large shells per batch     ...    26.94 (85.17%)
Average number of large basis fcns per batch ...    67.25 (86.88%)
Maximum spatial batch extension              ...   2.33,  2.58,  2.31 au
Average spatial batch extension              ...   0.09,  0.09,  0.09 au

Time for grid setup =    1.481 sec

------------------------------
INITIAL GUESS: MODEL POTENTIAL
------------------------------
Loading Hartree-Fock densities                     ... done
Calculating cut-offs                               ... done
Setting up the integral package                    ... done
Initializing the effective Hamiltonian             ... done
Starting the Coulomb interaction                   ... done (   0.0 sec)
Reading the grid                                   ... done
Mapping shells                                     ... done
Starting the XC term evaluation                    ... done (   0.0 sec)
  promolecular density results
     # of electrons  =     94.000016404
     EX              =   -164.439562928
     EC              =     -4.024367782
     EX+EC           =   -168.463930710
Transforming the Hamiltonian                       ... done (   0.0 sec)
Diagonalizing the Hamiltonian                      ... done (   0.0 sec)
Back transforming the eigenvectors                 ... done (   0.0 sec)
Now organizing SCF variables                       ... done
                      ------------------
                      INITIAL GUESS DONE (   1.7 sec)
                      ------------------
--------------
SCF ITERATIONS
--------------
ITER       Energy         Delta-E        Max-DP      RMS-DP      [F,P]     Damp
               ***  Starting incremental Fock matrix formation  ***
  0  -3104.2598073502   0.000000000000 0.01617515  0.00075920  0.5041544 0.8500
  1  -3104.2900894296  -0.030282079376 0.01645797  0.00076295  0.4282680 0.8500
                               ***Turning on DIIS***
  2  -3104.3127612834  -0.022671853858 0.01351740  0.00061793  0.3639069 0.8500
  3  -3104.3290425945  -0.016281311123 0.00880468  0.00039513  0.3093173 0.8500
  4  -3104.3415227496  -0.012480155073 0.00535592  0.00025458  0.2630717 0.8500
  5  -3104.3512218620  -0.009699112425 0.00402611  0.00020154  0.2236725 0.8500
  6  -3104.3593413129  -0.008119450852 0.00355577  0.00017727  0.1900930 0.8500
  7  -3104.3662784843  -0.006937171369 0.00347568  0.00016585  0.1615466 0.8500
  8  -3104.3722618373  -0.005983353050 0.00312953  0.00014767  0.1372803 0.8500
  9  -3104.3773121352  -0.005050297901 0.00261587  0.00012492  0.1166977 0.8500
 10  -3104.3815599019  -0.004247766686 0.00213747  0.00010400  0.0992130 0.8500
 11  -3104.3851519237  -0.003592021787 0.00177956  0.00008761  0.0843378 0.8500
 12  -3104.3881989029  -0.003046979247 0.00152316  0.00007503  0.0716847 0.8500
 13  -3104.3907857183  -0.002586815390 0.00131521  0.00006459  0.0609280 0.8500
 14  -3104.3929809633  -0.002195244999 0.00112471  0.00005526  0.0517896 0.8500
 15  -3104.3948442861  -0.001863322796 0.00095015  0.00004690  0.0440239 0.8500
 16  -3104.3964268575  -0.001582571431 0.00080020  0.00003973  0.0374216 0.8500
 17  -3104.3977714045  -0.001344546932 0.00067717  0.00003377  0.0318083 0.8500
 18  -3104.3989137965  -0.001142392019 0.00383993  0.00019194  0.0270369 0.0000
 19  -3104.4053840172  -0.006470220729 0.00032345  0.00000769  0.0001517 0.0000
               *** Restarting incremental Fock matrix formation ***
                                   *** Resetting DIIS ***
 20  -3104.4053842761  -0.000000258897 0.00007575  0.00000278  0.0002427 0.0000
 21  -3104.4053842881  -0.000000011976 0.00004826  0.00000125  0.0003148 0.0000
 22  -3104.4053843832  -0.000000095085 0.00003642  0.00000078  0.0000510 0.0000
 23  -3104.4053843924  -0.000000009180 0.00001405  0.00000034  0.0000088 0.0000
 24  -3104.4053843950  -0.000000002672 0.00000646  0.00000020  0.0000077 0.0000
 25  -3104.4053843956  -0.000000000593 0.00000615  0.00000017  0.0000074 0.0000
 26  -3104.4053843958  -0.000000000132 0.00000646  0.00000016  0.0000071 0.0000
 27  -3104.4053843965  -0.000000000717 0.00000758  0.00000018  0.0000068 0.0000
 28  -3104.4053843970  -0.000000000546 0.00000565  0.00000014  0.0000065 0.0000
                 **** Energy Check signals convergence ****

               *****************************************************
               *                     SUCCESS                       *
               *           SCF CONVERGED AFTER  29 CYCLES          *
               *****************************************************


----------------
TOTAL SCF ENERGY
----------------

Total Energy       :        -3104.40538440 Eh          -84475.16514 eV

Components:
Nuclear Repulsion  :          638.46209019 Eh           17373.43672 eV
Electronic Energy  :        -3742.86747459 Eh         -101848.60187 eV
One Electron Energy:        -5598.05909669 Eh         -152330.93238 eV
Two Electron Energy:         1855.19162210 Eh           50482.33051 eV

Virial components:
Potential Energy   :        -6204.34496122 Eh         -168828.80949 eV
Kinetic Energy     :         3099.93957683 Eh           84353.64434 eV
Virial Ratio       :            2.00144061


DFT components:
N(Alpha)           :       50.000004696061 electrons
N(Beta)            :       46.000005992958 electrons
N(Total)           :       96.000010689019 electrons
E(X)               :     -131.277997619680 Eh       
E(C)               :       -4.750080331729 Eh       
E(XC)              :     -136.028077951409 Eh       
DFET-embed. en.    :        0.000000000000 Eh       

---------------
SCF CONVERGENCE
---------------

  Last Energy change         ...   -4.7294e-10  Tolerance :   1.0000e-08
  Last MAX-Density change    ...    1.5482e-05  Tolerance :   1.0000e-07
  Last RMS-Density change    ...    3.5911e-07  Tolerance :   5.0000e-09
  Last DIIS Error            ...    6.1422e-06  Tolerance :   5.0000e-07

             **** THE GBW FILE WAS UPDATED (fe2cl4.gbw) ****
             **** DENSITY FILE WAS UPDATED (fe2cl4.scfp) ****
             **** ENERGY FILE WAS UPDATED (fe2cl4.en.tmp) ****
----------------------
UHF SPIN CONTAMINATION
----------------------

Warning: in a DFT calculation there is little theoretical justification to 
         calculate <S**2> as in Hartree-Fock theory. We will do it anyways
         but you should keep in mind that the values have only limited relevance

Expectation value of <S**2>     :     6.004693
Ideal value S*(S+1) for S=2.0   :     6.000000
Deviation                       :     0.004693

             **** THE GBW FILE WAS UPDATED (fe2cl4.gbw) ****
             **** DENSITY FILE WAS UPDATED (fe2cl4.scfp) ****
----------------
ORBITAL ENERGIES
----------------
                 SPIN UP ORBITALS
  NO   OCC          E(Eh)            E(eV) 
   0   1.0000    -255.746964     -6959.2287 
   1   1.0000    -101.158941     -2752.6747 
   2   1.0000    -101.158923     -2752.6742 
   3   1.0000    -101.157741     -2752.6421 
   4   1.0000    -101.157549     -2752.6368 
   5   1.0000     -29.720201      -808.7278 
   6   1.0000     -25.587247      -696.2644 
   7   1.0000     -25.586150      -696.2345 
   8   1.0000     -25.556822      -695.4365 
   9   1.0000      -9.090477      -247.3645 
  10   1.0000      -9.090446      -247.3636 
  11   1.0000      -9.089199      -247.3297 
  12   1.0000      -9.089020      -247.3248 
  13   1.0000      -6.849241      -186.3773 
  14   1.0000      -6.849220      -186.3767 
  15   1.0000      -6.847980      -186.3430 
  16   1.0000      -6.847801      -186.3381 
  17   1.0000      -6.846438      -186.3011 
  18   1.0000      -6.846410      -186.3003 
  19   1.0000      -6.846214      -186.2950 
  20   1.0000      -6.846197      -186.2945 
  21   1.0000      -6.845173      -186.2666 
  22   1.0000      -6.844993      -186.2617 
  23   1.0000      -6.844938      -186.2602 
  24   1.0000      -6.844763      -186.2555 
  25   1.0000      -3.221614       -87.6646 
  26   1.0000      -2.020744       -54.9872 
  27   1.0000      -2.018426       -54.9242 
  28   1.0000      -1.958067       -53.2817 
  29   1.0000      -0.450495       -12.2586 
  30   1.0000      -0.444016       -12.0823 
  31   1.0000      -0.442464       -12.0401 
  32   1.0000      -0.441961       -12.0264 
  33   1.0000      -0.074156        -2.0179 
  34   1.0000      -0.059997        -1.6326 
  35   1.0000      -0.054513        -1.4834 
  36   1.0000      -0.053424        -1.4537 
  37   1.0000      -0.048269        -1.3135 
  38   1.0000      -0.009802        -0.2667 
  39   1.0000      -0.001370        -0.0373 
  40   1.0000      -0.001008        -0.0274 
  41   1.0000       0.004563         0.1242 
  42   1.0000       0.031608         0.8601 
  43   1.0000       0.032031         0.8716 
  44   1.0000       0.032681         0.8893 
  45   1.0000       0.034029         0.9260 
  46   1.0000       0.054853         1.4926 
  47   1.0000       0.055532         1.5111 
  48   1.0000       0.055735         1.5166 
  49   1.0000       0.056050         1.5252 
  50   0.0000       0.313588         8.5332 
  51   0.0000       0.345236         9.3944 
  52   0.0000       0.350045         9.5252 
  53   0.0000       0.350816         9.5462 
  54   0.0000       0.437307        11.8997 
  55   0.0000       0.524566        14.2742 
  56   0.0000       0.535295        14.5661 
  57   0.0000       0.537610        14.6291 
  58   0.0000       0.719214        19.5708 
  59   0.0000       0.724910        19.7258 
  60   0.0000       0.725819        19.7505 
  61   0.0000       0.733537        19.9605 
  62   0.0000       0.748603        20.3705 
  63   0.0000       0.752703        20.4821 
  64   0.0000       0.832109        22.6428 
  65   0.0000       0.834825        22.7167 
  66   0.0000       0.847167        23.0526 
  67   0.0000       0.909270        24.7425 
  68   0.0000       0.911227        24.7957 
  69   0.0000       0.915648        24.9161 
  70   0.0000       0.945498        25.7283 
  71   0.0000       0.949085        25.8259 
  72   0.0000       0.985038        26.8042 
  73   0.0000       1.077512        29.3206 
  74   0.0000       1.284877        34.9633 
  75   0.0000       1.318194        35.8699 
  76   0.0000       1.396316        37.9957 
  77   0.0000       1.398011        38.0418 
  78   0.0000       1.398789        38.0630 
  79   0.0000       2.030965        55.2654 
  80   0.0000       2.031407        55.2774 
  81   0.0000       2.032856        55.3168 
  82   0.0000       3.443713        93.7082 
  83   0.0000       5.231335       142.3519 
  84   0.0000       5.290388       143.9588 
  85   0.0000       5.324529       144.8878 
  86   0.0000       5.334789       145.1670 
  87   0.0000       5.336229       145.2062 
  88   0.0000       6.246401       169.9732 
  89   0.0000       6.246495       169.9758 
  90   0.0000       6.258417       170.3002 
  91   0.0000       6.262560       170.4129 
  92   0.0000       6.298363       171.3872 
  93   0.0000       6.299542       171.4193 
  94   0.0000       6.318366       171.9315 
  95   0.0000       9.568987       260.3854 
  96   0.0000       9.569121       260.3890 
  97   0.0000       9.596527       261.1348 
  98   0.0000      25.712394       699.6698 
  99   0.0000     167.581196      4560.1162 
 100   0.0000     216.647422      5895.2761 
 101   0.0000     216.653401      5895.4388 
 102   0.0000     216.654523      5895.4693 
 103   0.0000     722.100128     19649.3434 
 104   0.0000    2454.447413     66788.9096 
 105   0.0000    8071.830629    219645.6780 
 106   0.0000   28473.972031    774816.1699 
 107   0.0000   117240.963737   3190288.8144 
 108   0.0000   597781.183575   16266452.9756 
 109   0.0000   2211674.943549   60182734.8451 
 110   0.0000   6563629.643135   178605442.7149 
 111   0.0000   18768449.369047   510715471.6046 

                 SPIN DOWN ORBITALS
  NO   OCC          E(Eh)            E(eV) 
   0   1.0000    -255.746740     -6959.2226 
   1   1.0000    -101.158403     -2752.6601 
   2   1.0000    -101.158384     -2752.6596 
   3   1.0000    -101.157206     -2752.6275 
   4   1.0000    -101.157011     -2752.6222 
   5   1.0000     -29.645036      -806.6824 
   6   1.0000     -25.519765      -694.4281 
   7   1.0000     -25.519268      -694.4146 
   8   1.0000     -25.505624      -694.0433 
   9   1.0000      -9.089951      -247.3501 
  10   1.0000      -9.089919      -247.3493 
  11   1.0000      -9.088674      -247.3154 
  12   1.0000      -9.088494      -247.3105 
  13   1.0000      -6.848396      -186.3543 
  14   1.0000      -6.848375      -186.3537 
  15   1.0000      -6.847123      -186.3197 
  16   1.0000      -6.846938      -186.3147 
  17   1.0000      -6.845640      -186.2793 
  18   1.0000      -6.845633      -186.2792 
  19   1.0000      -6.845618      -186.2787 
  20   1.0000      -6.845609      -186.2785 
  21   1.0000      -6.844380      -186.2450 
  22   1.0000      -6.844377      -186.2450 
  23   1.0000      -6.844199      -186.2401 
  24   1.0000      -6.844197      -186.2401 
  25   1.0000      -3.039626       -82.7124 
  26   1.0000      -1.811046       -49.2811 
  27   1.0000      -1.810750       -49.2730 
  28   1.0000      -1.799313       -48.9618 
  29   1.0000      -0.446801       -12.1581 
  30   1.0000      -0.440190       -11.9782 
  31   1.0000      -0.438652       -11.9363 
  32   1.0000      -0.438092       -11.9211 
  33   1.0000      -0.038898        -1.0585 
  34   1.0000      -0.007545        -0.2053 
  35   1.0000      -0.006317        -0.1719 
  36   1.0000      -0.005694        -0.1550 
  37   1.0000       0.010401         0.2830 
  38   1.0000       0.010758         0.2927 
  39   1.0000       0.014860         0.4044 
  40   1.0000       0.015807         0.4301 
  41   1.0000       0.016178         0.4402 
  42   1.0000       0.035147         0.9564 
  43   1.0000       0.035527         0.9667 
  44   1.0000       0.037501         1.0204 
  45   1.0000       0.119007         3.2384 
  46   0.0000       0.259938         7.0733 
  47   0.0000       0.267518         7.2795 
  48   0.0000       0.295433         8.0391 
  49   0.0000       0.296312         8.0631 
  50   0.0000       0.317299         8.6341 
  51   0.0000       0.348344         9.4789 
  52   0.0000       0.354698         9.6518 
  53   0.0000       0.355085         9.6624 
  54   0.0000       0.466513        12.6945 
  55   0.0000       0.543770        14.7967 
  56   0.0000       0.562351        15.3023 
  57   0.0000       0.564605        15.3637 
  58   0.0000       0.723138        19.6776 
  59   0.0000       0.729719        19.8567 
  60   0.0000       0.730539        19.8790 
  61   0.0000       0.737922        20.0799 
  62   0.0000       0.750341        20.4178 
  63   0.0000       0.754254        20.5243 
  64   0.0000       0.833267        22.6744 
  65   0.0000       0.835946        22.7473 
  66   0.0000       0.848578        23.0910 
  67   0.0000       0.910998        24.7895 
  68   0.0000       0.912954        24.8427 
  69   0.0000       0.916958        24.9517 
  70   0.0000       0.949092        25.8261 
  71   0.0000       0.952629        25.9224 
  72   0.0000       0.987551        26.8726 
  73   0.0000       1.082043        29.4439 
  74   0.0000       1.351156        36.7668 
  75   0.0000       1.368239        37.2317 
  76   0.0000       1.473932        40.1077 
  77   0.0000       1.480687        40.2915 
  78   0.0000       1.482639        40.3447 
  79   0.0000       2.094159        56.9850 
  80   0.0000       2.111674        57.4616 
  81   0.0000       2.113946        57.5234 
  82   0.0000       3.547798        96.5405 
  83   0.0000       5.357116       145.7745 
  84   0.0000       5.368297       146.0788 
  85   0.0000       5.455959       148.4642 
  86   0.0000       5.477301       149.0449 
  87   0.0000       5.479022       149.0918 
  88   0.0000       6.426013       174.8607 
  89   0.0000       6.426097       174.8630 
  90   0.0000       6.435963       175.1314 
  91   0.0000       6.443314       175.3315 
  92   0.0000       6.444192       175.3554 
  93   0.0000       6.465679       175.9401 
  94   0.0000       6.466620       175.9657 
  95   0.0000       9.697201       263.8743 
  96   0.0000       9.698281       263.9036 
  97   0.0000       9.699573       263.9388 
  98   0.0000      25.820016       702.5984 
  99   0.0000     167.613568      4560.9971 
 100   0.0000     216.658256      5895.5709 
 101   0.0000     216.667331      5895.8178 
 102   0.0000     216.668577      5895.8517 
 103   0.0000     722.107253     19649.5373 
 104   0.0000    2454.448933     66788.9510 
 105   0.0000    8071.830776    219645.6820 
 106   0.0000   28473.971798    774816.1635 
 107   0.0000   117240.963447   3190288.8065 
 108   0.0000   597781.183442   16266452.9720 
 109   0.0000   2211674.943579   60182734.8459 
 110   0.0000   6563629.643386   178605442.7218 
 111   0.0000   18768449.369543   510715471.6181 

                    ********************************
                    * MULLIKEN POPULATION ANALYSIS *
                    ********************************

--------------------------------------------
MULLIKEN ATOMIC CHARGES AND SPIN POPULATIONS
--------------------------------------------
   0 Fe:    0.491034    3.800763
   1 Cl:   -0.624323    0.049529
   2 Cl:   -0.623797    0.049845
   3 Cl:   -0.621486    0.049927
   4 Cl:   -0.621428    0.049936
Sum of atomic charges         :   -2.0000000
Sum of atomic spin populations:    4.0000000

-----------------------------------------------------
MULLIKEN REDUCED ORBITAL CHARGES AND SPIN POPULATIONS
-----------------------------------------------------
CHARGE
  0 Fes       :     6.415668  s :     6.415668
      pz      :     4.274741  p :    12.791403
      px      :     4.263457
      py      :     4.253206
      dz2     :     1.324222  d :     6.301706
      dxz     :     1.054396
      dyz     :     1.062593
      dx2y2   :     1.151544
      dxy     :     1.708950
      f0      :     0.000021  f :     0.000189
      f+1     :     0.000023
      f-1     :     0.000032
      f+2     :     0.000010
      f-2     :     0.000021
      f+3     :     0.000051
      f-3     :     0.000032
  1 Cls       :     5.959279  s :     5.959279
      pz      :     3.939520  p :    11.665044
      px      :     3.777723
      py      :     3.947801
  2 Cls       :     5.959124  s :     5.959124
      pz      :     3.939517  p :    11.664673
      px      :     3.923985
      py      :     3.801171
  3 Cls       :     5.958822  s :     5.958822
      pz      :     3.823653  p :    11.662664
      px      :     3.925960
      py      :     3.913052
  4 Cls       :     5.958811  s :     5.958811
      pz      :     3.823640  p :    11.662618
      px      :     3.925957
      py      :     3.913021

SPIN
  0 Fes       :     0.037076  s :     0.037076
      pz      :     0.021289  p :     0.059136
      px      :     0.019774
      py      :     0.018072
      dz2     :     0.679979  d :     3.704531
      dxz     :     0.947869
      dyz     :     0.937660
      dx2y2   :     0.846592
      dxy     :     0.292431
      f0      :    -0.000005  f :     0.000021
      f+1     :     0.000006
      f-1     :     0.000011
      f+2     :    -0.000001
      f-2     :    -0.000005
      f+3     :     0.000024
      f-3     :    -0.000009
  1 Cls       :     0.001098  s :     0.001098
      pz      :     0.017517  p :     0.048431
      px      :     0.022187
      py      :     0.008726
  2 Cls       :     0.001107  s :     0.001107
      pz      :     0.017549  p :     0.048738
      px      :     0.009627
      py      :     0.021561
  3 Cls       :     0.001095  s :     0.001095
      pz      :     0.016615  p :     0.048832
      px      :     0.016626
      py      :     0.015591
  4 Cls       :     0.001095  s :     0.001095
      pz      :     0.016615  p :     0.048841
      px      :     0.016637
      py      :     0.015589


                     *******************************
                     * LOEWDIN POPULATION ANALYSIS *
                     *******************************

-------------------------------------------
LOEWDIN ATOMIC CHARGES AND SPIN POPULATIONS
-------------------------------------------
   0 Fe:   -0.125176    3.767217
   1 Cl:   -0.470666    0.057864
   2 Cl:   -0.470105    0.058173
   3 Cl:   -0.467065    0.058368
   4 Cl:   -0.466988    0.058378

----------------------------------------------------
LOEWDIN REDUCED ORBITAL CHARGES AND SPIN POPULATIONS
----------------------------------------------------
CHARGE
  0 Fes       :     6.460500  s :     6.460500
      pz      :     4.439433  p :    13.262898
      px      :     4.419988
      py      :     4.403477
      dz2     :     1.351061  d :     6.401567
      dxz     :     1.067850
      dyz     :     1.082717
      dx2y2   :     1.177021
      dxy     :     1.722917
      f0      :     0.000024  f :     0.000211
      f+1     :     0.000027
      f-1     :     0.000036
      f+2     :     0.000012
      f-2     :     0.000024
      f+3     :     0.000055
      f-3     :     0.000034
  1 Cls       :     5.841600  s :     5.841600
      pz      :     3.931832  p :    11.629066
      px      :     3.758743
      py      :     3.938492
  2 Cls       :     5.841371  s :     5.841371
      pz      :     3.931769  p :    11.628734
      px      :     3.912460
      py      :     3.784505
  3 Cls       :     5.840535  s :     5.840535
      pz      :     3.806135  p :    11.626530
      px      :     3.917069
      py      :     3.903326
  4 Cls       :     5.840508  s :     5.840508
      pz      :     3.806125  p :    11.626481
      px      :     3.917067
      py      :     3.903289

SPIN
  0 Fes       :     0.017738  s :     0.017738
      pz      :     0.018959  p :     0.056064
      px      :     0.018733
      py      :     0.018372
      dz2     :     0.676878  d :     3.693395
      dxz     :     0.946240
      dyz     :     0.935362
      dx2y2   :     0.843837
      dxy     :     0.291077
      f0      :    -0.000005  f :     0.000020
      f+1     :     0.000006
      f-1     :     0.000011
      f+2     :    -0.000001
      f-2     :    -0.000005
      f+3     :     0.000024
      f-3     :    -0.000009
  1 Cls       :     0.001915  s :     0.001915
      pz      :     0.018081  p :     0.055948
      px      :     0.028755
      py      :     0.009112
  2 Cls       :     0.001925  s :     0.001925
      pz      :     0.018117  p :     0.056248
      px      :     0.010788
      py      :     0.027343
  3 Cls       :     0.001889  s :     0.001889
      pz      :     0.021404  p :     0.056478
      px      :     0.017782
      py      :     0.017293
  4 Cls       :     0.001889  s :     0.001889
      pz      :     0.021405  p :     0.056489
      px      :     0.017793
      py      :     0.017291


                      *****************************
                      * MAYER POPULATION ANALYSIS *
                      *****************************

  NA   - Mulliken gross atomic population
  ZA   - Total nuclear charge
  QA   - Mulliken gross atomic charge
  VA   - Mayer's total valence
  BVA  - Mayer's bonded valence
  FA   - Mayer's free valence

  ATOM       NA         ZA         QA         VA         BVA        FA
  0 Fe    25.5090    26.0000     0.4910     6.1720     2.6406     3.5314
  1 Cl    17.6243    17.0000    -0.6243     0.6445     0.6433     0.0012
  2 Cl    17.6238    17.0000    -0.6238     0.6451     0.6439     0.0012
  3 Cl    17.6215    17.0000    -0.6215     0.6486     0.6474     0.0012
  4 Cl    17.6214    17.0000    -0.6214     0.6486     0.6475     0.0012

  Mayer bond orders larger than 0.100000
B(  0-Fe,  1-Cl) :   0.6580 B(  0-Fe,  2-Cl) :   0.6588 B(  0-Fe,  3-Cl) :   0.6619 
B(  0-Fe,  4-Cl) :   0.6620 

-------
TIMINGS
-------

Total SCF time: 0 days 0 hours 0 min 11 sec 

Total time                  ....      11.975 sec
Sum of individual times     ....      11.680 sec  ( 97.5%)

Fock matrix formation       ....       9.825 sec  ( 82.0%)
  XC integration            ....       1.777 sec  ( 18.1% of F)
    Basis function eval.    ....       0.294 sec  ( 16.6% of XC)
    Density eval.           ....       0.197 sec  ( 11.1% of XC)
    XC-Functional eval.     ....       0.178 sec  ( 10.0% of XC)
    XC-Potential eval.      ....       0.212 sec  ( 12.0% of XC)
Diagonalization             ....       0.127 sec  (  1.1%)
Density matrix formation    ....       0.018 sec  (  0.2%)
Population analysis         ....       0.005 sec  (  0.0%)
Initial guess               ....       0.169 sec  (  1.4%)
Orbital Transformation      ....       0.000 sec  (  0.0%)
Orbital Orthonormalization  ....       0.000 sec  (  0.0%)
DIIS solution               ....       0.054 sec  (  0.5%)
Grid generation             ....       1.481 sec  ( 12.4%)

-------------------------   --------------------
FINAL SINGLE POINT ENERGY     -3104.405384397498
-------------------------   --------------------


                            ***************************************
                            *     ORCA property calculations      *
                            ***************************************

                                    ---------------------
                                    Active property flags
                                    ---------------------
   (+) Dipole Moment
   (+) Nuclear properties (Hyperfine,Quadrupole)


------------------------------------------------------------------------------
                       ORCA ELECTRIC PROPERTIES CALCULATION
------------------------------------------------------------------------------

Dipole Moment Calculation                       ... on
Quadrupole Moment Calculation                   ... off
Polarizability Calculation                      ... off
GBWName                                         ... fe2cl4.gbw
Electron density file                           ... fe2cl4.scfp
The origin for moment calculation is the CENTER OF MASS  = (-0.001081, -0.002056  0.000015)

-------------
DIPOLE MOMENT
-------------
                                X             Y             Z
Electronic contribution:     -0.02812      -0.04915       0.00044
Nuclear contribution   :      0.00733       0.01394      -0.00010
                        -----------------------------------------
Total Dipole Moment    :     -0.02079      -0.03521       0.00034
                        -----------------------------------------
Magnitude (a.u.)       :      0.04089
Magnitude (Debye)      :      0.10393



--------------------
Rotational spectrum 
--------------------
 
Rotational constants in cm-1:     0.033997     0.033750     0.029753 
Rotational constants in MHz :  1019.212481  1011.800376   891.974021 

 Dipole components along the rotational axes: 
x,y,z [a.u.] :     0.000395    -0.003033     0.040774 
x,y,z [Debye]:     0.001004    -0.007710     0.103640 

 


           ************************************************************
           *        Program running with 16 parallel MPI-processes    *
           *              working on a common directory               *
           ************************************************************
------------------------------------------------------------------------------
                                ORCA EPR/NMR CALCULATION
------------------------------------------------------------------------------

GBWName                      ... fe2cl4.gbw
Electron density file        ... fe2cl4.scfp
Spin density file            ... fe2cl4.scfr
Multiplicity                 ... 5
g-tensor                     ... 0
NMR chemical shifts          ... 0
Number of nuclei for epr/nmr ... 1
   Nucleus:   0Fe
       Hyperfine : Isotope=   57 I=   0.500 P=  17.280
       Quadrupole: Isotope=   57 I=   0.500 Q=   0.160
       Spin-Orbit: Zeff=  13.910
       Ncuelar Spin-Spin: Gn=   0.000
       rho(0)=Y f(grad)=Y a(iso)=N a(dip)=N a(orb)=N sigma(nmr)=N spin-spin(nmr)=all-N,DSO-N,PSO-N,FC-N,SD-N

-----------------------------------------
ELECTRIC AND MAGNETIC HYPERFINE STRUCTURE
-----------------------------------------

 -----------------------------------------------------------
 Nucleus   0Fe: A:ISTP=   57 I=  0.5 P= 17.2798 MHz/au**3
                Q:ISTP=   57 I=  0.5 Q=  0.1600 barn     
 -----------------------------------------------------------
 Raw EFG matrix (all values in a.u.**-3):
            -0.0330      -1.5391       0.0012
            -1.5391      -1.1273      -0.0008
             0.0012      -0.0008       1.1603

 V(El)       0.9940       1.0819      -2.0760
 V(Nuc)      0.0593       0.0784      -0.1376
         ----------   ----------   ----------
 V(Tot)      1.0533       1.1603      -2.2136 
 Orientation: 
  X      -0.8169198    0.0109714    0.5766470
  Y       0.5765950   -0.0077443    0.8169934
  Z       0.0134292    0.9999098    0.0000004

Note: Tensor is right-handed

Moessbauer quadrupole splitting parameter (proper coordinate system)
 e**2qQ  =  -83.219 MHz =   -7.174 mm/s
 eta     =  0.048
 Delta-EQ=(1/2{e**2qQ}*sqrt(1+1/3*eta**2) =  -41.626 MHz =   -3.588 mm/s
 RHO(0)=  11815.170210580 a.u.**-3


------------------------------------------------------------------------------- 

Timings for individual modules:

Sum of individual times         ...       13.345 sec (=   0.222 min)
GTO integral calculation        ...        0.696 sec (=   0.012 min)   5.2 %
SCF iterations                  ...       12.235 sec (=   0.204 min)  91.7 %
EPR/NMR calculation             ...        0.414 sec (=   0.007 min)   3.1 %
                             ****ORCA TERMINATED NORMALLY****
TOTAL RUN TIME: 0 days 0 hours 0 minutes 13 seconds 735 msec
