
                                 *****************
                                 * O   R   C   A *
                                 *****************

           --- An Ab Initio, DFT and Semiempirical electronic structure package ---

                  #######################################################
                  #                        -***-                        #
                  #          Department of theory and spectroscopy      #
                  #               Directorship: Frank Neese             #
                  #        Max Planck Institute fuer Kohlenforschung    #
                  #                Kaiser Wilhelm Platz 1               #
                  #                 D-45470 Muelheim/Ruhr               #
                  #                      Germany                        #
                  #                                                     #
                  #                  All rights reserved                #
                  #                        -***-                        #
                  #######################################################


                         Program Version 4.2.1 -  RELEASE  -


 With contributions from (in alphabetic order):
   Daniel Aravena         : Magnetic Suceptibility
   Michael Atanasov       : Ab Initio Ligand Field Theory (pilot matlab implementation)
   Alexander A. Auer      : GIAO ZORA, VPT2
   Ute Becker             : Parallelization
   Giovanni Bistoni       : ED, misc. LED, open-shell LED, HFLD
   Martin Brehm           : Molecular dynamics
   Dmytro Bykov           : SCF Hessian
   Vijay G. Chilkuri      : MRCI spin determinant printing, contributions to CSF-ICE
   Dipayan Datta          : RHF DLPNO-CCSD density
   Achintya Kumar Dutta   : EOM-CC, STEOM-CC
   Dmitry Ganyushin       : Spin-Orbit,Spin-Spin,Magnetic field MRCI
   Miquel Garcia          : C-PCM Hessian, Gaussian charge scheme
   Yang Guo               : DLPNO-NEVPT2, CIM, IAO-localization
   Andreas Hansen         : Spin unrestricted coupled pair/coupled cluster methods
   Benjamin Helmich-Paris : CASSCF linear response (MC-RPA)
   Lee Huntington         : MR-EOM, pCC
   Robert Izsak           : Overlap fitted RIJCOSX, COSX-SCS-MP3, EOM
   Christian Kollmar      : KDIIS, OOCD, Brueckner-CCSD(T), CCSD density
   Simone Kossmann        : Meta GGA functionals, TD-DFT gradient, OOMP2, MP2 Hessian
   Martin Krupicka        : AUTO-CI
   Lucas Lang             : DCDCAS
   Dagmar Lenk            : GEPOL surface, SMD
   Dimitrios Liakos       : Extrapolation schemes; Compound Job, initial MDCI parallelization
   Dimitrios Manganas     : Further ROCIS development; embedding schemes
   Dimitrios Pantazis     : SARC Basis sets
   Taras Petrenko         : DFT Hessian,TD-DFT gradient, ASA, ECA, R-Raman, ABS, FL, XAS/XES, NRVS
   Peter Pinski           : DLPNO-MP2, DLPNO-MP2 Gradient
   Christoph Reimann      : Effective Core Potentials
   Marius Retegan         : Local ZFS, SOC
   Christoph Riplinger    : Optimizer, TS searches, QM/MM, DLPNO-CCSD(T), (RO)-DLPNO pert. Triples
   Tobias Risthaus        : Range-separated hybrids, TD-DFT gradient, RPA, STAB
   Michael Roemelt        : Original ROCIS implementation
   Masaaki Saitow         : Open-shell DLPNO-CCSD energy and density
   Barbara Sandhoefer     : DKH picture change effects
   Avijit Sen             : IP-ROCIS
   Kantharuban Sivalingam : CASSCF convergence, NEVPT2, FIC-MRCI
   Bernardo de Souza      : ESD, SOC TD-DFT
   Georgi Stoychev        : AutoAux, RI-MP2 NMR
   Willem Van den Heuvel  : Paramagnetic NMR
   Boris Wezisla          : Elementary symmetry handling
   Frank Wennmohs         : Technical directorship


 We gratefully acknowledge several colleagues who have allowed us to
 interface, adapt or use parts of their codes:
   Stefan Grimme, W. Hujo, H. Kruse,             : VdW corrections, initial TS optimization,
                  C. Bannwarth                     DFT functionals, gCP, sTDA/sTD-DF
   Ed Valeev, F. Pavosevic, A. Kumar             : LibInt (2-el integral package), F12 methods
   Garnet Chan, S. Sharma, J. Yang, R. Olivares  : DMRG
   Ulf Ekstrom                                   : XCFun DFT Library
   Mihaly Kallay                                 : mrcc  (arbitrary order and MRCC methods)
   Andreas Klamt, Michael Diedenhofen            : otool_cosmo (COSMO solvation model)
   Jiri Pittner, Ondrej Demel                    : Mk-CCSD
   Frank Weinhold                                : gennbo (NPA and NBO analysis)
   Christopher J. Cramer and Donald G. Truhlar   : smd solvation model
   Lars Goerigk                                  : TD-DFT with DH, B97 family of functionals
   V. Asgeirsson, H. Jonsson                     : NEB implementation
   FAccTs GmbH                                   : IRC, NEB, NEB-TS, Multilevel, MM, QM/MM, CI optimization
   S Lehtola, MJT Oliveira, MAL Marques          : LibXC Library


 Your calculation uses the libint2 library for the computation of 2-el integrals
 For citations please refer to: http://libint.valeyev.net

 Your ORCA version has been built with support for libXC version: 4.2.3
 For citations please refer to: https://tddft.org/programs/libxc/

 This ORCA versions uses:
   CBLAS   interface :  Fast vector & matrix operations
   LAPACKE interface :  Fast linear algebra routines
   SCALAPACK package :  Parallel linear algebra routines


----- Orbital basis set information -----
Your calculation utilizes the basis: def2-TZVPP
   F. Weigend and R. Ahlrichs, Phys. Chem. Chem. Phys. 7, 3297 (2005).

================================================================================
                                        WARNINGS
                       Please study these warnings very carefully!
================================================================================


INFO   : the flag for use of LIBINT has been found!

================================================================================
                                       INPUT FILE
================================================================================
NAME = fe2cn6.inp
|  1> ! DFT B3LYP def2-TZVPP TightSCF Grid5 NoFinalGrid VerySlowConv
|  2> %pal
|  3> nprocs 8
|  4> end
|  5> %method SpecialGridAtoms 26
|  6> SpecialGridIntAcc 7
|  7> end
|  8> %basis NewGTO 26 "CP(PPP)" end
|  9> end
| 10> * xyz -4 1
| 11> Fe -0.000066 -0.000034 -0.000001
| 12> C   1.919852  0.000060  0.000058
| 13> C  -1.920009  0.000054 -0.000022
| 14> C   0.000032  1.920036 -0.000011
| 15> C   0.000066 -1.920127 -0.000032
| 16> C   0.000011 -0.000031  1.920227
| 17> C  -0.000053 -0.000053 -1.920225
| 18> N   3.102102  0.000123  0.000098
| 19> N  -3.102222  0.000156 -0.000029
| 20> N   0.000149  3.102259 -0.000003
| 21> N   0.000158 -3.102340 -0.000061
| 22> N   0.000058 -0.000023  3.102487
| 23> N  -0.000078 -0.000080 -3.102486
| 24> *
| 25> # Note that the EPR block needs to below the coordinate block for the “all Fe” command (all irons) to be recognized. 
| 26> %eprnmr nuclei = all Fe {rho, fgrad}
| 27> end
| 28> 
| 29>                          ****END OF INPUT****
================================================================================

                       ****************************
                       * Single Point Calculation *
                       ****************************

---------------------------------
CARTESIAN COORDINATES (ANGSTROEM)
---------------------------------
  Fe    -0.000066   -0.000034   -0.000001
  C      1.919852    0.000060    0.000058
  C     -1.920009    0.000054   -0.000022
  C      0.000032    1.920036   -0.000011
  C      0.000066   -1.920127   -0.000032
  C      0.000011   -0.000031    1.920227
  C     -0.000053   -0.000053   -1.920225
  N      3.102102    0.000123    0.000098
  N     -3.102222    0.000156   -0.000029
  N      0.000149    3.102259   -0.000003
  N      0.000158   -3.102340   -0.000061
  N      0.000058   -0.000023    3.102487
  N     -0.000078   -0.000080   -3.102486

----------------------------
CARTESIAN COORDINATES (A.U.)
----------------------------
  NO LB      ZA    FRAG     MASS         X           Y           Z
   0 Fe   26.0000    0    55.850   -0.000125   -0.000064   -0.000002
   1 C     6.0000    0    12.011    3.627994    0.000113    0.000110
   2 C     6.0000    0    12.011   -3.628291    0.000102   -0.000042
   3 C     6.0000    0    12.011    0.000060    3.628342   -0.000021
   4 C     6.0000    0    12.011    0.000125   -3.628514   -0.000060
   5 C     6.0000    0    12.011    0.000021   -0.000059    3.628703
   6 C     6.0000    0    12.011   -0.000100   -0.000100   -3.628699
   7 N     7.0000    0    14.007    5.862123    0.000232    0.000185
   8 N     7.0000    0    14.007   -5.862350    0.000295   -0.000055
   9 N     7.0000    0    14.007    0.000282    5.862420   -0.000006
  10 N     7.0000    0    14.007    0.000299   -5.862573   -0.000115
  11 N     7.0000    0    14.007    0.000110   -0.000043    5.862851
  12 N     7.0000    0    14.007   -0.000147   -0.000151   -5.862849

--------------------------------
INTERNAL COORDINATES (ANGSTROEM)
--------------------------------
 Fe     0   0   0     0.000000000000     0.00000000     0.00000000
 C      1   0   0     1.919918003208     0.00000000     0.00000000
 C      1   2   0     1.919943002132   179.99445151     0.00000000
 C      1   2   3     1.920070002527    89.99427042    11.79388285
 C      1   2   4     1.920093004788    89.99886636   179.99877634
 C      1   2   4     1.920228001546    89.99594174   269.99979082
 C      1   2   4     1.920224000138    90.00137286    90.00026836
 N      2   1   3     1.182250002355   179.99969487    23.84940240
 N      3   1   2     1.182213004421   179.99766496     4.72268957
 N      4   1   2     1.182223005817   179.99716960   345.97285061
 N      5   1   2     1.182213003935   179.99929213   317.25582933
 N      6   1   2     1.182260000961   179.99970116    93.79019227
 N      7   1   2     1.182261000573   179.99823698   155.12854883

---------------------------
INTERNAL COORDINATES (A.U.)
---------------------------
 Fe     0   0   0     0.000000000000     0.00000000     0.00000000
 C      1   0   0     3.628119225647     0.00000000     0.00000000
 C      1   2   0     3.628166466767   179.99445151     0.00000000
 C      1   2   3     3.628406462733    89.99427042    11.79388285
 C      1   2   4     3.628449930706    89.99886636   179.99877634
 C      1   2   4     3.628705037609    89.99594174   269.99979082
 C      1   2   4     3.628697476044    90.00137286    90.00026836
 N      2   1   3     2.234128726279   179.99969487    23.84940240
 N      3   1   2     2.234058810316   179.99766496     4.72268957
 N      4   1   2     2.234077710215   179.99716960   345.97285061
 N      5   1   2     2.234058809398   179.99929213   317.25582933
 N      6   1   2     2.234147620906   179.99970116    93.79019227
 N      7   1   2     2.234149509898   179.99823698   155.12854883

---------------------
BASIS SET INFORMATION
---------------------
There are 3 groups of distinct atoms

 Group   1 Type Fe  : 17s11p5d1f contracted to 17s7p3d1f pattern {11111111111111111/3311111/311/1}
 Group   2 Type C   : 11s6p2d1f contracted to 5s3p2d1f pattern {62111/411/11/1}
 Group   3 Type N   : 11s6p2d1f contracted to 5s3p2d1f pattern {62111/411/11/1}

Atom   0Fe   basis set group =>   1
Atom   1C    basis set group =>   2
Atom   2C    basis set group =>   2
Atom   3C    basis set group =>   2
Atom   4C    basis set group =>   2
Atom   5C    basis set group =>   2
Atom   6C    basis set group =>   2
Atom   7N    basis set group =>   3
Atom   8N    basis set group =>   3
Atom   9N    basis set group =>   3
Atom  10N    basis set group =>   3
Atom  11N    basis set group =>   3
Atom  12N    basis set group =>   3


           ************************************************************
           *        Program running with 8 parallel MPI-processes     *
           *              working on a common directory               *
           ************************************************************
------------------------------------------------------------------------------
                           ORCA GTO INTEGRAL CALCULATION
------------------------------------------------------------------------------

                         BASIS SET STATISTICS AND STARTUP INFO

 # of primitive gaussian shells          ...  274
 # of primitive gaussian functions       ...  634
 # of contracted shells                  ...  160
 # of contracted basis functions         ...  432
 Highest angular momentum                ...    3
 Maximum contraction depth               ...    6
 Integral package used                   ... LIBINT
 Integral threshhold            Thresh   ...  2.500e-11
 Primitive cut-off              TCut     ...  2.500e-12


------------------------------ INTEGRAL EVALUATION ----------------------------


 * One electron integrals 
 Pre-screening matrix                    ... done
 Shell pair data                         ... done (   0.006 sec)



           ************************************************************
           *        Program running with 8 parallel MPI-processes     *
           *              working on a common directory               *
           ************************************************************
-------------------------------------------------------------------------------
                                 ORCA SCF
-------------------------------------------------------------------------------

------------
SCF SETTINGS
------------
Hamiltonian:
 Density Functional     Method          .... DFT(GTOs)
 Exchange Functional    Exchange        .... B88
   X-Alpha parameter    XAlpha          ....  0.666667
   Becke's b parameter  XBeta           ....  0.004200
 Correlation Functional Correlation     .... LYP
 LDA part of GGA corr.  LDAOpt          .... VWN-5
 Gradients option       PostSCFGGA      .... off
 Hybrid DFT is turned on
   Fraction HF Exchange ScalHFX         ....  0.200000
   Scaling of DF-GGA-X  ScalDFX         ....  0.720000
   Scaling of DF-GGA-C  ScalDFC         ....  0.810000
   Scaling of DF-LDA-C  ScalLDAC        ....  1.000000
   Perturbative correction              ....  0.000000
   Density functional embedding theory  .... OFF
   NL short-range parameter             ....  4.800000


General Settings:
 Integral files         IntName         .... fe2cn6
 Hartree-Fock type      HFTyp           .... RHF
 Total Charge           Charge          ....   -4
 Multiplicity           Mult            ....    1
 Number of Electrons    NEL             ....  108
 Basis Dimension        Dim             ....  432
 Nuclear Repulsion      ENuc            ....    912.3114372626 Eh

Convergence Acceleration:
 DIIS                   CNVDIIS         .... on
   Start iteration      DIISMaxIt       ....     0
   Startup error        DIISStart       ....  0.200000
   # of expansion vecs  DIISMaxEq       ....     5
   Bias factor          DIISBfac        ....   1.050
   Max. coefficient     DIISMaxC        ....  10.000
 Newton-Raphson         CNVNR           .... off
 SOSCF                  CNVSOSCF        .... off
 Level Shifting         CNVShift        .... on
   Level shift para.    LevelShift      ....    0.2500
   Turn off err/grad.   ShiftErr        ....    0.0000
 Zerner damping         CNVZerner       .... off
 Static damping         CNVDamp         .... on
   Fraction old density DampFac         ....    0.9200
   Max. Damping (<1)    DampMax         ....    0.9800
   Min. Damping (>=0)   DampMin         ....    0.0000
   Turn off err/grad.   DampErr         ....    0.0030
 Fernandez-Rico         CNVRico         .... off

SCF Procedure:
 Maximum # iterations   MaxIter         ....   125
 SCF integral mode      SCFMode         .... Direct
   Integral package                     .... LIBINT
 Reset frequency        DirectResetFreq ....    20
 Integral Threshold     Thresh          ....  2.500e-11 Eh
 Primitive CutOff       TCut            ....  2.500e-12 Eh

Convergence Tolerance:
 Convergence Check Mode ConvCheckMode   .... Total+1el-Energy
 Convergence forced     ConvForced      .... 0
 Energy Change          TolE            ....  1.000e-08 Eh
 1-El. energy change                    ....  1.000e-05 Eh
 DIIS Error             TolErr          ....  5.000e-07


Diagonalization of the overlap matrix:
Smallest eigenvalue                        ... 1.531e-04
Time for diagonalization                   ...    0.043 sec
Threshold for overlap eigenvalues          ... 1.000e-08
Number of eigenvalues below threshold      ... 0
Time for construction of square roots      ...    0.020 sec
Total time needed                          ...    0.065 sec

-------------------
DFT GRID GENERATION
-------------------

General Integration Accuracy     IntAcc      ...  5.010
Radial Grid Type                 RadialGrid  ... Gauss-Chebyshev
Angular Grid (max. acc.)         AngularGrid ... Lebedev-434
Angular grid pruning method      GridPruning ... 3 (G Style)
Weight generation scheme         WeightScheme... Becke
Basis function cutoff            BFCut       ...    1.0000e-11
Integration weight cutoff        WCut        ...    1.0000e-14
Grids for H and He will be reduced by one unit

SpecialGrid => Setting IntAcc for atom type =  26 to   7.0000
# of grid points (after initial pruning)     ... 152294 (   0.0 sec)
# of grid points (after weights+screening)   ... 141998 (   0.1 sec)
nearest neighbour list constructed           ...    0.0 sec
Grid point re-assignment to atoms done       ...    0.0 sec
Grid point division into batches done        ...    1.4 sec
Reduced shell lists constructed in    1.6 sec

Total number of grid points                  ...   141998
Total number of batches                      ...     2224
Average number of points per batch           ...       63
Average number of grid points per atom       ...    10923
Average number of shells per batch           ...   105.39 (65.87%)
Average number of basis functions per batch  ...   308.32 (71.37%)
Average number of large shells per batch     ...    87.74 (83.25%)
Average number of large basis fcns per batch ...   254.65 (82.59%)
Maximum spatial batch extension              ...   2.03,  2.69,  2.66 au
Average spatial batch extension              ...   0.09,  0.10,  0.10 au

Time for grid setup =    1.762 sec

------------------------------
INITIAL GUESS: MODEL POTENTIAL
------------------------------
Loading Hartree-Fock densities                     ... done
Calculating cut-offs                               ... done
Setting up the integral package                    ... done
Initializing the effective Hamiltonian             ... done
Starting the Coulomb interaction                   ... done (   0.1 sec)
Reading the grid                                   ... done
Mapping shells                                     ... done
Starting the XC term evaluation                    ... done (   0.4 sec)
  promolecular density results
     # of electrons  =    104.000111870
     EX              =   -124.176856812
     EC              =     -3.886717053
     EX+EC           =   -128.063573865
Transforming the Hamiltonian                       ... done (   0.0 sec)
Diagonalizing the Hamiltonian                      ... done (   0.0 sec)
Back transforming the eigenvectors                 ... done (   0.0 sec)
Now organizing SCF variables                       ... done
                      ------------------
                      INITIAL GUESS DONE (   2.4 sec)
                      ------------------
--------------
SCF ITERATIONS
--------------
ITER       Energy         Delta-E        Max-DP      RMS-DP      [F,P]     Damp
               ***  Starting incremental Fock matrix formation  ***
  0  -1819.6205522042   0.000000000000 0.02201416  0.00053037  0.5056827 0.9200
  1  -1819.7195460241  -0.098993819951 0.04411231  0.00098222  0.4655678 0.9200
                               ***Turning on DIIS***
  2  -1819.7979744429  -0.078428418806 0.05396266  0.00117555  0.4285578 0.9200
  3  -1819.8572725215  -0.059298078575 0.04594314  0.00097722  0.3944038 0.9200
  4  -1819.9056435474  -0.048371025925 0.02970900  0.00063724  0.3628305 0.9200
  5  -1819.9441462140  -0.038502666545 0.01691161  0.00039193  0.3338043 0.9200
  6  -1819.9764068086  -0.032260594585 0.00999523  0.00026432  0.3071566 0.9200
  7  -1820.0043085566  -0.027901748092 0.00810954  0.00021504  0.2826166 0.9200
  8  -1820.0295663916  -0.025257834936 0.01039104  0.00020207  0.2600228 0.9200
  9  -1820.0523656810  -0.022799289377 0.00984235  0.00019078  0.2391789 0.9200
 10  -1820.0727701660  -0.020404485005 0.00681252  0.00017063  0.2200290 0.9200
 11  -1820.0912564600  -0.018486294026 0.00584874  0.00015187  0.2024616 0.9200
 12  -1820.1078616057  -0.016605145676 0.00646163  0.00013732  0.1862880 0.9200
 13  -1820.1227986326  -0.014937026966 0.00675292  0.00012592  0.1713789 0.9200
 14  -1820.1362402510  -0.013441618410 0.00561049  0.00011320  0.1576522 0.9200
 15  -1820.1484143945  -0.012174143436 0.00431110  0.00010123  0.1450436 0.9200
 16  -1820.1594708425  -0.011056448059 0.00423902  0.00009192  0.1334579 0.9200
 17  -1820.1694906107  -0.010019768198 0.00452916  0.00008458  0.1227863 0.9200
 18  -1820.1785824750  -0.009091864260 0.00416259  0.00007701  0.1129560 0.9200
 19  -1820.1868491163  -0.008266641321 0.00333529  0.00006910  0.1039162 0.9200
               *** Restarting incremental Fock matrix formation ***
                                   *** Resetting DIIS ***
 20  -1820.1943889097  -0.007539793410 0.00369214  0.00008924  0.0956097 0.9200
 21  -1820.2014039448  -0.007015035062 0.00355380  0.00008547  0.0879763 0.9200
 22  -1820.2077330492  -0.006329104428 0.00297573  0.00006523  0.0809440 0.9200
 23  -1820.2134391451  -0.005706095856 0.00249683  0.00004778  0.0744689 0.9200
 24  -1820.2186082690  -0.005169123895 0.00217460  0.00003867  0.0685133 0.9200
 25  -1820.2233203696  -0.004712100629 0.00197275  0.00003507  0.0630328 0.9200
 26  -1820.2276481967  -0.004327827128 0.00196313  0.00003286  0.0579903 0.9200
 27  -1820.2316232214  -0.003975024658 0.00184833  0.00003058  0.0533490 0.9200
 28  -1820.2352699906  -0.003646769225 0.00158810  0.00002797  0.0490802 0.9200
 29  -1820.2386153731  -0.003345382508 0.00141910  0.00002552  0.0451558 0.9200
 30  -1820.2416843242  -0.003068951042 0.00135401  0.00002343  0.0415449 0.9200
 31  -1820.2445005360  -0.002816211877 0.00129559  0.00002157  0.0382211 0.9200
 32  -1820.2470855766  -0.002585040564 0.00116872  0.00001978  0.0351624 0.9200
 33  -1820.2494593593  -0.002373782683 0.00102816  0.00001810  0.0323495 0.9200
 34  -1820.2516397496  -0.002180390282 0.00095265  0.00001663  0.0297625 0.9200
 35  -1820.2536426423  -0.002002892734 0.00091015  0.00001532  0.0273819 0.9200
 36  -1820.2554827300  -0.001840087676 0.00084205  0.00001410  0.0251909 0.9200
 37  -1820.2571735496  -0.001690819655 0.00074985  0.00001294  0.0231754 0.9200
 38  -1820.2587274876  -0.001553937982 0.00067632  0.00001188  0.0213217 0.9200
 39  -1820.2601557279  -0.001428240342 0.00063838  0.00001091  0.0196163 0.9200
               *** Restarting incremental Fock matrix formation ***
                                   *** Resetting DIIS ***
 40  -1820.2614685520  -0.001312824030 0.00060074  0.00001124  0.0180470 0.9200
 41  -1820.2626778802  -0.001209328217 0.00056650  0.00001054  0.0166047 0.9200
 42  -1820.2637885866  -0.001110706380 0.00051781  0.00000877  0.0152768 0.9200
 43  -1820.2648086096  -0.001020023048 0.00044684  0.00000767  0.0140545 0.9200
 44  -1820.2657456676  -0.000937057952 0.00046047  0.00000728  0.0129301 0.9200
 45  -1820.2666070604  -0.000861392785 0.00044343  0.00000687  0.0118955 0.9200
 46  -1820.2673995540  -0.000792493687 0.00039912  0.00000633  0.0109437 0.9200
 47  -1820.2681286376  -0.000729083597 0.00035747  0.00000580  0.0100679 0.9200
 48  -1820.2687992699  -0.000670632253 0.00032866  0.00000532  0.0092623 0.9200
 49  -1820.2694161063  -0.000616836393 0.00030756  0.00000492  0.0085215 0.9200
 50  -1820.2699834677  -0.000567361377 0.00028749  0.00000456  0.0078399 0.9200
 51  -1820.2705053455  -0.000521877843 0.00026648  0.00000421  0.0072126 0.9200
 52  -1820.2709854024  -0.000480056860 0.00024534  0.00000387  0.0066354 0.9200
 53  -1820.2714270028  -0.000441600419 0.00022576  0.00000355  0.0061045 0.9200
 54  -1820.2718332334  -0.000406230642 0.00020788  0.00000327  0.0056162 0.9200
 55  -1820.2722069290  -0.000373695523 0.00019140  0.00000301  0.0051669 0.9200
 56  -1820.2725506989  -0.000343769938 0.00017686  0.00000278  0.0047535 0.9200
 57  -1820.2728669440  -0.000316245114 0.00016378  0.00000256  0.0043731 0.9200
 58  -1820.2731578711  -0.000290927070 0.00015217  0.00000237  0.0040233 0.9200
 59  -1820.2734255097  -0.000267638671 0.00015504  0.00000244  0.0037014 0.9200
               *** Restarting incremental Fock matrix formation ***
                                   *** Resetting DIIS ***
 60  -1820.2736717003  -0.000246190536 0.00011493  0.00000201  0.0034053 0.9200
 61  -1820.2738982545  -0.000226554209 0.00010850  0.00000181  0.0031329 0.9200
 62  -1820.2741066574  -0.000208402879 0.00128457  0.00002108  0.0028823 0.0000
 63  -1820.2765023100  -0.002395652650 0.00033937  0.00000677  0.0001100 0.0000
 64  -1820.2765024519  -0.000000141842 0.00014139  0.00000231  0.0002865 0.0000
 65  -1820.2765025281  -0.000000076242 0.00003942  0.00000058  0.0002363 0.0000
 66  -1820.2765025970  -0.000000068905 0.00002711  0.00000060  0.0000285 0.0000
 67  -1820.2765025982  -0.000000001191 0.00003182  0.00000045  0.0000129 0.0000
 68  -1820.2765025984  -0.000000000226 0.00002126  0.00000029  0.0000150 0.0000
 69  -1820.2765025991  -0.000000000664 0.00000821  0.00000014  0.0000046 0.0000
 70  -1820.2765026104  -0.000000011263 0.00000286  0.00000005  0.0000035 0.0000
                            ***DIIS convergence achieved***

               *****************************************************
               *                     SUCCESS                       *
               *           SCF CONVERGED AFTER  71 CYCLES          *
               *****************************************************


----------------
TOTAL SCF ENERGY
----------------

Total Energy       :        -1820.27650261 Eh          -49532.24181 eV

Components:
Nuclear Repulsion  :          912.31143726 Eh           24825.25630 eV
Electronic Energy  :        -2732.58793987 Eh          -74357.49811 eV
One Electron Energy:        -4381.53916969 Eh         -119227.74223 eV
Two Electron Energy:         1648.95122982 Eh           44870.24412 eV

Virial components:
Potential Energy   :        -3637.12660782 Eh          -98971.24660 eV
Kinetic Energy     :         1816.85010521 Eh           49439.00479 eV
Virial Ratio       :            2.00188590


DFT components:
N(Alpha)           :       54.000039525698 electrons
N(Beta)            :       54.000039525698 electrons
N(Total)           :      108.000079051396 electrons
E(X)               :     -100.018834732637 Eh       
E(C)               :       -4.709452238623 Eh       
E(XC)              :     -104.728286971261 Eh       
DFET-embed. en.    :        0.000000000000 Eh       

---------------
SCF CONVERGENCE
---------------

  Last Energy change         ...    2.6369e-09  Tolerance :   1.0000e-08
  Last MAX-Density change    ...    1.6294e-05  Tolerance :   1.0000e-07
  Last RMS-Density change    ...    1.0272e-07  Tolerance :   5.0000e-09
  Last DIIS Error            ...    4.3482e-07  Tolerance :   5.0000e-07

             **** THE GBW FILE WAS UPDATED (fe2cn6.gbw) ****
             **** DENSITY FILE WAS UPDATED (fe2cn6.scfp) ****
             **** ENERGY FILE WAS UPDATED (fe2cn6.en.tmp) ****
             **** THE GBW FILE WAS UPDATED (fe2cn6.gbw) ****
             **** DENSITY FILE WAS UPDATED (fe2cn6.scfp) ****
----------------
ORBITAL ENERGIES
----------------

  NO   OCC          E(Eh)            E(eV) 
   0   2.0000    -255.473956     -6951.7998 
   1   2.0000     -29.434859      -800.9632 
   2   2.0000     -25.295692      -688.3308 
   3   2.0000     -25.295691      -688.3307 
   4   2.0000     -25.295690      -688.3307 
   5   2.0000     -13.722505      -373.4083 
   6   2.0000     -13.722504      -373.4083 
   7   2.0000     -13.722485      -373.4078 
   8   2.0000     -13.722484      -373.4078 
   9   2.0000     -13.722475      -373.4075 
  10   2.0000     -13.722472      -373.4075 
  11   2.0000      -9.617869      -261.7155 
  12   2.0000      -9.617864      -261.7154 
  13   2.0000      -9.617845      -261.7149 
  14   2.0000      -9.617839      -261.7147 
  15   2.0000      -9.617838      -261.7147 
  16   2.0000      -9.617828      -261.7144 
  17   2.0000      -2.848225       -77.5042 
  18   2.0000      -1.619355       -44.0649 
  19   2.0000      -1.619352       -44.0648 
  20   2.0000      -1.619350       -44.0648 
  21   2.0000      -0.312996        -8.5170 
  22   2.0000      -0.309126        -8.4118 
  23   2.0000      -0.309120        -8.4116 
  24   2.0000      -0.309110        -8.4113 
  25   2.0000      -0.307686        -8.3726 
  26   2.0000      -0.307676        -8.3723 
  27   2.0000       0.048013         1.3065 
  28   2.0000       0.129185         3.5153 
  29   2.0000       0.129198         3.5157 
  30   2.0000       0.129204         3.5158 
  31   2.0000       0.136842         3.7236 
  32   2.0000       0.136845         3.7238 
  33   2.0000       0.194910         5.3038 
  34   2.0000       0.202753         5.5172 
  35   2.0000       0.202760         5.5174 
  36   2.0000       0.202761         5.5174 
  37   2.0000       0.209027         5.6879 
  38   2.0000       0.209032         5.6881 
  39   2.0000       0.209038         5.6882 
  40   2.0000       0.219560         5.9745 
  41   2.0000       0.219570         5.9748 
  42   2.0000       0.239893         6.5278 
  43   2.0000       0.239900         6.5280 
  44   2.0000       0.239901         6.5280 
  45   2.0000       0.252096         6.8599 
  46   2.0000       0.252105         6.8601 
  47   2.0000       0.252107         6.8602 
  48   2.0000       0.268362         7.3025 
  49   2.0000       0.268365         7.3026 
  50   2.0000       0.268367         7.3026 
  51   2.0000       0.343838         9.3563 
  52   2.0000       0.343840         9.3564 
  53   2.0000       0.343841         9.3564 
  54   0.0000       0.525448        14.2982 
  55   0.0000       0.530291        14.4300 
  56   0.0000       0.530293        14.4300 
  57   0.0000       0.530294        14.4300 
  58   0.0000       0.592876        16.1330 
  59   0.0000       0.592921        16.1342 
  60   0.0000       0.598040        16.2735 
  61   0.0000       0.598048        16.2737 
  62   0.0000       0.598062        16.2741 
  63   0.0000       0.608176        16.5493 
  64   0.0000       0.608178        16.5494 
  65   0.0000       0.608182        16.5495 
  66   0.0000       0.626944        17.0600 
  67   0.0000       0.626949        17.0602 
  68   0.0000       0.626964        17.0606 
  69   0.0000       0.671317        18.2675 
  70   0.0000       0.671327        18.2677 
  71   0.0000       0.671346        18.2682 
  72   0.0000       0.672183        18.2910 
  73   0.0000       0.672201        18.2915 
  74   0.0000       0.728538        19.8245 
  75   0.0000       0.728552        19.8249 
  76   0.0000       0.728572        19.8254 
  77   0.0000       0.770403        20.9637 
  78   0.0000       0.782014        21.2797 
  79   0.0000       0.782029        21.2801 
  80   0.0000       0.782035        21.2803 
  81   0.0000       0.782037        21.2803 
  82   0.0000       0.802308        21.8319 
  83   0.0000       0.802310        21.8320 
  84   0.0000       0.802315        21.8321 
  85   0.0000       0.836861        22.7721 
  86   0.0000       0.836868        22.7723 
  87   0.0000       0.836873        22.7725 
  88   0.0000       0.840816        22.8798 
  89   0.0000       0.840831        22.8802 
  90   0.0000       0.919634        25.0245 
  91   0.0000       0.919647        25.0249 
  92   0.0000       0.919658        25.0252 
  93   0.0000       0.920806        25.0564 
  94   0.0000       0.920816        25.0567 
  95   0.0000       0.920821        25.0568 
  96   0.0000       1.006544        27.3895 
  97   0.0000       1.006562        27.3899 
  98   0.0000       1.015391        27.6302 
  99   0.0000       1.027068        27.9479 
 100   0.0000       1.027072        27.9480 
 101   0.0000       1.027082        27.9483 
 102   0.0000       1.038036        28.2464 
 103   0.0000       1.038041        28.2465 
 104   0.0000       1.038050        28.2468 
 105   0.0000       1.043623        28.3984 
 106   0.0000       1.043632        28.3987 
 107   0.0000       1.043639        28.3989 
 108   0.0000       1.057213        28.7682 
 109   0.0000       1.103696        30.0331 
 110   0.0000       1.112277        30.2666 
 111   0.0000       1.112315        30.2676 
 112   0.0000       1.112331        30.2681 
 113   0.0000       1.144181        31.1347 
 114   0.0000       1.144186        31.1349 
 115   0.0000       1.144196        31.1352 
 116   0.0000       1.153585        31.3906 
 117   0.0000       1.153599        31.3910 
 118   0.0000       1.153610        31.3913 
 119   0.0000       1.197632        32.5892 
 120   0.0000       1.197650        32.5897 
 121   0.0000       1.226960        33.3873 
 122   0.0000       1.226981        33.3878 
 123   0.0000       1.227005        33.3885 
 124   0.0000       1.308711        35.6118 
 125   0.0000       1.308732        35.6124 
 126   0.0000       1.308757        35.6131 
 127   0.0000       1.310937        35.6724 
 128   0.0000       1.311001        35.6741 
 129   0.0000       1.316613        35.8269 
 130   0.0000       1.316632        35.8274 
 131   0.0000       1.316655        35.8280 
 132   0.0000       1.317185        35.8424 
 133   0.0000       1.317224        35.8435 
 134   0.0000       1.351701        36.7817 
 135   0.0000       1.361238        37.0412 
 136   0.0000       1.361243        37.0413 
 137   0.0000       1.361254        37.0416 
 138   0.0000       1.393708        37.9247 
 139   0.0000       1.441233        39.2180 
 140   0.0000       1.441281        39.2193 
 141   0.0000       1.441286        39.2194 
 142   0.0000       1.503965        40.9250 
 143   0.0000       1.557438        42.3800 
 144   0.0000       1.557456        42.3805 
 145   0.0000       1.590701        43.2852 
 146   0.0000       1.590707        43.2854 
 147   0.0000       1.590717        43.2856 
 148   0.0000       1.685170        45.8558 
 149   0.0000       1.699812        46.2542 
 150   0.0000       1.699830        46.2547 
 151   0.0000       1.773206        48.2514 
 152   0.0000       1.773231        48.2521 
 153   0.0000       1.773244        48.2524 
 154   0.0000       1.780740        48.4564 
 155   0.0000       1.786491        48.6129 
 156   0.0000       1.786520        48.6137 
 157   0.0000       1.786563        48.6149 
 158   0.0000       1.819968        49.5239 
 159   0.0000       1.820020        49.5253 
 160   0.0000       1.838776        50.0356 
 161   0.0000       1.838810        50.0366 
 162   0.0000       1.838854        50.0377 
 163   0.0000       1.853570        50.4382 
 164   0.0000       1.853579        50.4384 
 165   0.0000       1.853594        50.4389 
 166   0.0000       1.862996        50.6947 
 167   0.0000       1.863012        50.6951 
 168   0.0000       1.863018        50.6953 
 169   0.0000       1.888470        51.3879 
 170   0.0000       1.888510        51.3890 
 171   0.0000       1.906972        51.8913 
 172   0.0000       1.907034        51.8930 
 173   0.0000       1.907086        51.8945 
 174   0.0000       1.928428        52.4752 
 175   0.0000       1.942424        52.8560 
 176   0.0000       1.986398        54.0526 
 177   0.0000       1.986429        54.0535 
 178   0.0000       1.986478        54.0548 
 179   0.0000       2.057183        55.9788 
 180   0.0000       2.057204        55.9794 
 181   0.0000       2.057214        55.9796 
 182   0.0000       2.062325        56.1187 
 183   0.0000       2.062344        56.1192 
 184   0.0000       2.062346        56.1193 
 185   0.0000       2.082067        56.6559 
 186   0.0000       2.082087        56.6565 
 187   0.0000       2.082089        56.6565 
 188   0.0000       2.132989        58.0416 
 189   0.0000       2.133005        58.0420 
 190   0.0000       2.133012        58.0422 
 191   0.0000       2.148363        58.4599 
 192   0.0000       2.148367        58.4600 
 193   0.0000       2.148381        58.4604 
 194   0.0000       2.180905        59.3455 
 195   0.0000       2.180990        59.3478 
 196   0.0000       2.255237        61.3681 
 197   0.0000       2.255477        61.3746 
 198   0.0000       2.358887        64.1886 
 199   0.0000       2.358928        64.1897 
 200   0.0000       2.358973        64.1909 
 201   0.0000       2.380128        64.7666 
 202   0.0000       2.380180        64.7680 
 203   0.0000       2.380245        64.7698 
 204   0.0000       2.417518        65.7840 
 205   0.0000       2.417547        65.7848 
 206   0.0000       2.417578        65.7857 
 207   0.0000       2.480935        67.5097 
 208   0.0000       2.510818        68.3228 
 209   0.0000       2.510864        68.3241 
 210   0.0000       2.531460        68.8845 
 211   0.0000       2.531542        68.8868 
 212   0.0000       2.531572        68.8876 
 213   0.0000       2.762028        75.1586 
 214   0.0000       2.762138        75.1616 
 215   0.0000       2.762257        75.1648 
 216   0.0000       2.893338        78.7317 
 217   0.0000       2.893359        78.7323 
 218   0.0000       2.909680        79.1764 
 219   0.0000       2.909687        79.1766 
 220   0.0000       2.909709        79.1772 
 221   0.0000       2.916686        79.3671 
 222   0.0000       2.916733        79.3683 
 223   0.0000       2.916766        79.3692 
 224   0.0000       2.959163        80.5229 
 225   0.0000       2.959183        80.5235 
 226   0.0000       2.959226        80.5246 
 227   0.0000       2.961648        80.5905 
 228   0.0000       3.054576        83.1192 
 229   0.0000       3.054613        83.1202 
 230   0.0000       3.054669        83.1218 
 231   0.0000       3.117193        84.8231 
 232   0.0000       3.117200        84.8233 
 233   0.0000       3.117201        84.8234 
 234   0.0000       3.225127        87.7602 
 235   0.0000       3.226954        87.8099 
 236   0.0000       3.226960        87.8100 
 237   0.0000       3.226964        87.8102 
 238   0.0000       3.255246        88.5798 
 239   0.0000       3.255254        88.5800 
 240   0.0000       3.255259        88.5801 
 241   0.0000       3.265491        88.8585 
 242   0.0000       3.265704        88.8643 
 243   0.0000       3.265903        88.8697 
 244   0.0000       3.279881        89.2501 
 245   0.0000       3.281041        89.2817 
 246   0.0000       3.281053        89.2820 
 247   0.0000       3.281064        89.2823 
 248   0.0000       3.336230        90.7834 
 249   0.0000       3.336251        90.7840 
 250   0.0000       3.336256        90.7841 
 251   0.0000       3.342863        90.9639 
 252   0.0000       3.342877        90.9643 
 253   0.0000       3.342879        90.9644 
 254   0.0000       3.364128        91.5426 
 255   0.0000       3.364199        91.5445 
 256   0.0000       3.371092        91.7321 
 257   0.0000       3.371142        91.7334 
 258   0.0000       3.432944        93.4152 
 259   0.0000       3.432969        93.4158 
 260   0.0000       3.432976        93.4160 
 261   0.0000       3.449206        93.8577 
 262   0.0000       3.496328        95.1399 
 263   0.0000       3.496346        95.1404 
 264   0.0000       3.496365        95.1409 
 265   0.0000       3.540521        96.3425 
 266   0.0000       3.571209        97.1775 
 267   0.0000       3.571464        97.1845 
 268   0.0000       3.626863        98.6920 
 269   0.0000       3.626870        98.6922 
 270   0.0000       3.626874        98.6923 
 271   0.0000       3.649882        99.3183 
 272   0.0000       3.649921        99.3194 
 273   0.0000       3.658772        99.5603 
 274   0.0000       3.658789        99.5607 
 275   0.0000       3.658807        99.5612 
 276   0.0000       3.700977       100.7087 
 277   0.0000       3.723234       101.3143 
 278   0.0000       3.723237       101.3144 
 279   0.0000       3.775269       102.7303 
 280   0.0000       3.775374       102.7331 
 281   0.0000       3.775484       102.7362 
 282   0.0000       3.817667       103.8840 
 283   0.0000       3.844516       104.6146 
 284   0.0000       3.844540       104.6153 
 285   0.0000       3.844586       104.6165 
 286   0.0000       3.850969       104.7902 
 287   0.0000       3.851014       104.7914 
 288   0.0000       3.851086       104.7934 
 289   0.0000       3.904337       106.2424 
 290   0.0000       3.904395       106.2440 
 291   0.0000       3.904420       106.2447 
 292   0.0000       3.988637       108.5363 
 293   0.0000       4.011345       109.1542 
 294   0.0000       4.011351       109.1544 
 295   0.0000       4.011357       109.1546 
 296   0.0000       4.040032       109.9349 
 297   0.0000       4.040193       109.9392 
 298   0.0000       4.061360       110.5152 
 299   0.0000       4.061373       110.5156 
 300   0.0000       4.061406       110.5165 
 301   0.0000       4.064155       110.5913 
 302   0.0000       4.064184       110.5921 
 303   0.0000       4.064216       110.5929 
 304   0.0000       4.172212       113.5317 
 305   0.0000       4.172262       113.5330 
 306   0.0000       4.172328       113.5348 
 307   0.0000       4.175428       113.6192 
 308   0.0000       4.175447       113.6197 
 309   0.0000       4.197336       114.2153 
 310   0.0000       4.197341       114.2155 
 311   0.0000       4.197348       114.2157 
 312   0.0000       4.537071       123.4600 
 313   0.0000       4.537075       123.4601 
 314   0.0000       4.537085       123.4604 
 315   0.0000       4.538749       123.5056 
 316   0.0000       4.538754       123.5058 
 317   0.0000       4.538765       123.5061 
 318   0.0000       4.540955       123.5657 
 319   0.0000       4.540961       123.5658 
 320   0.0000       4.540974       123.5662 
 321   0.0000       4.542005       123.5942 
 322   0.0000       4.542008       123.5943 
 323   0.0000       4.542018       123.5946 
 324   0.0000       4.701589       127.9367 
 325   0.0000       4.701877       127.9446 
 326   0.0000       4.702023       127.9485 
 327   0.0000       4.723867       128.5429 
 328   0.0000       4.964559       135.0925 
 329   0.0000       4.964682       135.0959 
 330   0.0000       4.989736       135.7776 
 331   0.0000       5.005923       136.2181 
 332   0.0000       5.005986       136.2198 
 333   0.0000       5.005989       136.2199 
 334   0.0000       5.008329       136.2836 
 335   0.0000       5.008381       136.2850 
 336   0.0000       5.037880       137.0877 
 337   0.0000       5.037954       137.0897 
 338   0.0000       5.037956       137.0897 
 339   0.0000       5.045764       137.3022 
 340   0.0000       5.065560       137.8409 
 341   0.0000       5.065728       137.8455 
 342   0.0000       5.150459       140.1511 
 343   0.0000       5.162244       140.4718 
 344   0.0000       5.162273       140.4726 
 345   0.0000       5.162281       140.4728 
 346   0.0000       5.163124       140.4958 
 347   0.0000       5.163152       140.4965 
 348   0.0000       5.163159       140.4967 
 349   0.0000       5.166863       140.5975 
 350   0.0000       5.166889       140.5982 
 351   0.0000       5.178376       140.9108 
 352   0.0000       5.178390       140.9111 
 353   0.0000       5.189404       141.2109 
 354   0.0000       5.368289       146.0786 
 355   0.0000       5.451205       148.3348 
 356   0.0000       5.451209       148.3349 
 357   0.0000       5.451230       148.3355 
 358   0.0000       5.466178       148.7423 
 359   0.0000       5.466198       148.7428 
 360   0.0000       5.466231       148.7437 
 361   0.0000       5.518058       150.1540 
 362   0.0000       5.518081       150.1546 
 363   0.0000       5.518118       150.1556 
 364   0.0000       5.539080       150.7260 
 365   0.0000       5.539088       150.7262 
 366   0.0000       5.539104       150.7267 
 367   0.0000       5.955075       162.0458 
 368   0.0000       5.955128       162.0473 
 369   0.0000       5.955134       162.0474 
 370   0.0000       5.991173       163.0281 
 371   0.0000       5.991182       163.0283 
 372   0.0000       5.991245       163.0301 
 373   0.0000       5.993091       163.0803 
 374   0.0000       5.993111       163.0808 
 375   0.0000       5.993121       163.0811 
 376   0.0000       6.030208       164.0903 
 377   0.0000       6.030256       164.0916 
 378   0.0000       6.030342       164.0940 
 379   0.0000       6.084204       165.5596 
 380   0.0000       6.101323       166.0254 
 381   0.0000       6.101343       166.0260 
 382   0.0000       6.101413       166.0279 
 383   0.0000       6.118352       166.4888 
 384   0.0000       6.118479       166.4923 
 385   0.0000       6.279720       170.8799 
 386   0.0000       6.279830       170.8829 
 387   0.0000       6.294601       171.2848 
 388   0.0000       6.294746       171.2888 
 389   0.0000       6.294771       171.2894 
 390   0.0000       6.350773       172.8133 
 391   0.0000       6.448360       175.4688 
 392   0.0000       6.448381       175.4694 
 393   0.0000       6.448411       175.4702 
 394   0.0000       6.656845       181.1420 
 395   0.0000       6.718641       182.8235 
 396   0.0000       6.718672       182.8244 
 397   0.0000       6.718704       182.8252 
 398   0.0000       6.978438       189.8929 
 399   0.0000       6.978639       189.8984 
 400   0.0000       6.978833       189.9037 
 401   0.0000       7.096603       193.1084 
 402   0.0000       7.096634       193.1092 
 403   0.0000      10.832467       294.7664 
 404   0.0000      10.832713       294.7731 
 405   0.0000      10.832946       294.7794 
 406   0.0000      23.369947       635.9286 
 407   0.0000      23.370055       635.9315 
 408   0.0000      23.370109       635.9330 
 409   0.0000      23.539044       640.5300 
 410   0.0000      23.539424       640.5403 
 411   0.0000      23.672073       644.1499 
 412   0.0000      27.318333       743.3696 
 413   0.0000      32.666644       888.9046 
 414   0.0000      32.666748       888.9074 
 415   0.0000      32.666775       888.9081 
 416   0.0000      32.687677       889.4769 
 417   0.0000      32.687750       889.4789 
 418   0.0000      32.725045       890.4937 
 419   0.0000     168.836747      4594.2815 
 420   0.0000     217.540919      5919.5894 
 421   0.0000     217.541098      5919.5942 
 422   0.0000     217.541270      5919.5989 
 423   0.0000     723.201763     19679.3205 
 424   0.0000    2455.458821     66816.4314 
 425   0.0000    8072.773652    219671.3390 
 426   0.0000   28474.851812    774840.1099 
 427   0.0000   117241.775852   3190310.9132 
 428   0.0000   597781.918084   16266472.9626 
 429   0.0000   2211675.644313   60182753.9138 
 430   0.0000   6563630.322483   178605461.2009 
 431   0.0000   18768450.029509   510715489.5767 

                    ********************************
                    * MULLIKEN POPULATION ANALYSIS *
                    ********************************

-----------------------
MULLIKEN ATOMIC CHARGES
-----------------------
   0 Fe:   -0.325394
   1 C :   -0.219933
   2 C :   -0.220082
   3 C :   -0.220045
   4 C :   -0.220110
   5 C :   -0.220017
   6 C :   -0.220018
   7 N :   -0.392504
   8 N :   -0.392387
   9 N :   -0.392375
  10 N :   -0.392329
  11 N :   -0.392401
  12 N :   -0.392405
Sum of atomic charges:   -4.0000000

--------------------------------
MULLIKEN REDUCED ORBITAL CHARGES
--------------------------------
  0 Fes       :     6.663040  s :     6.663040
      pz      :     4.359902  p :    13.079593
      px      :     4.359822
      py      :     4.359869
      dz2     :     0.744970  d :     6.582358
      dxz     :     1.697402
      dyz     :     1.697445
      dx2y2   :     0.745165
      dxy     :     1.697376
      f0      :     0.000120  f :     0.000403
      f+1     :     0.000054
      f-1     :     0.000054
      f+2     :     0.000014
      f-2     :     0.000000
      f+3     :     0.000081
      f-3     :     0.000081
  1 C s       :     3.602333  s :     3.602333
      pz      :     0.721305  p :     2.509006
      px      :     1.066401
      py      :     0.721299
      dz2     :     0.006981  d :     0.097681
      dxz     :     0.036322
      dyz     :     0.001845
      dx2y2   :     0.016212
      dxy     :     0.036322
      f0      :     0.001504  f :     0.010913
      f+1     :     0.001106
      f-1     :     0.000249
      f+2     :     0.002459
      f-2     :     0.000115
      f+3     :     0.001766
      f-3     :     0.003714
  2 C s       :     3.602412  s :     3.602412
      pz      :     0.721298  p :     2.509078
      px      :     1.066487
      py      :     0.721293
      dz2     :     0.006981  d :     0.097678
      dxz     :     0.036320
      dyz     :     0.001844
      dx2y2   :     0.016212
      dxy     :     0.036321
      f0      :     0.001504  f :     0.010913
      f+1     :     0.001106
      f-1     :     0.000249
      f+2     :     0.002459
      f-2     :     0.000115
      f+3     :     0.001765
      f-3     :     0.003715
  3 C s       :     3.602429  s :     3.602429
      pz      :     0.721299  p :     2.509024
      px      :     0.721285
      py      :     1.066440
      dz2     :     0.006981  d :     0.097681
      dxz     :     0.001844
      dyz     :     0.036322
      dx2y2   :     0.016211
      dxy     :     0.036323
      f0      :     0.001504  f :     0.010911
      f+1     :     0.000249
      f-1     :     0.001106
      f+2     :     0.002459
      f-2     :     0.000115
      f+3     :     0.003714
      f-3     :     0.001765
  4 C s       :     3.602479  s :     3.602479
      pz      :     0.721290  p :     2.509042
      px      :     0.721281
      py      :     1.066470
      dz2     :     0.006980  d :     0.097678
      dxz     :     0.001843
      dyz     :     0.036321
      dx2y2   :     0.016211
      dxy     :     0.036323
      f0      :     0.001504  f :     0.010911
      f+1     :     0.000249
      f-1     :     0.001106
      f+2     :     0.002459
      f-2     :     0.000114
      f+3     :     0.003714
      f-3     :     0.001765
  5 C s       :     3.602501  s :     3.602501
      pz      :     1.066393  p :     2.508931
      px      :     0.721265
      py      :     0.721273
      dz2     :     0.020824  d :     0.097675
      dxz     :     0.036323
      dyz     :     0.036323
      dx2y2   :     0.002363
      dxy     :     0.001843
      f0      :     0.002753  f :     0.010909
      f+1     :     0.003952
      f-1     :     0.003952
      f+2     :     0.000117
      f-2     :     0.000114
      f+3     :     0.000010
      f-3     :     0.000010
  6 C s       :     3.602504  s :     3.602504
      pz      :     1.066391  p :     2.508930
      px      :     0.721267
      py      :     0.721272
      dz2     :     0.020824  d :     0.097676
      dxz     :     0.036323
      dyz     :     0.036323
      dx2y2   :     0.002363
      dxy     :     0.001843
      f0      :     0.002753  f :     0.010909
      f+1     :     0.003952
      f-1     :     0.003952
      f+2     :     0.000117
      f-2     :     0.000114
      f+3     :     0.000010
      f-3     :     0.000010
  7 N s       :     3.387158  s :     3.387158
      pz      :     1.284153  p :     3.968915
      px      :     1.400606
      py      :     1.284157
      dz2     :     0.001891  d :     0.034351
      dxz     :     0.013400
      dyz     :    -0.000007
      dx2y2   :     0.005667
      dxy     :     0.013400
      f0      :     0.000365  f :     0.002080
      f+1     :     0.000051
      f-1     :     0.000060
      f+2     :     0.000607
      f-2     :     0.000000
      f+3     :     0.000084
      f-3     :     0.000912
  8 N s       :     3.387047  s :     3.387047
      pz      :     1.284149  p :     3.968910
      px      :     1.400607
      py      :     1.284154
      dz2     :     0.001891  d :     0.034351
      dxz     :     0.013401
      dyz     :    -0.000007
      dx2y2   :     0.005666
      dxy     :     0.013401
      f0      :     0.000365  f :     0.002080
      f+1     :     0.000051
      f-1     :     0.000060
      f+2     :     0.000607
      f-2     :     0.000000
      f+3     :     0.000084
      f-3     :     0.000912
  9 N s       :     3.387076  s :     3.387076
      pz      :     1.284130  p :     3.968868
      px      :     1.284139
      py      :     1.400599
      dz2     :     0.001891  d :     0.034351
      dxz     :    -0.000007
      dyz     :     0.013401
      dx2y2   :     0.005666
      dxy     :     0.013401
      f0      :     0.000365  f :     0.002080
      f+1     :     0.000060
      f-1     :     0.000051
      f+2     :     0.000607
      f-2     :     0.000000
      f+3     :     0.000912
      f-3     :     0.000084
 10 N s       :     3.387032  s :     3.387032
      pz      :     1.284130  p :     3.968867
      px      :     1.284140
      py      :     1.400597
      dz2     :     0.001891  d :     0.034351
      dxz     :    -0.000007
      dyz     :     0.013401
      dx2y2   :     0.005665
      dxy     :     0.013401
      f0      :     0.000365  f :     0.002080
      f+1     :     0.000060
      f-1     :     0.000051
      f+2     :     0.000607
      f-2     :     0.000000
      f+3     :     0.000912
      f-3     :     0.000084
 11 N s       :     3.387116  s :     3.387116
      pz      :     1.400588  p :     3.968854
      px      :     1.284136
      py      :     1.284131
      dz2     :     0.007554  d :     0.034351
      dxz     :     0.013401
      dyz     :     0.013400
      dx2y2   :     0.000003
      dxy     :    -0.000007
      f0      :     0.000134  f :     0.002080
      f+1     :     0.000973
      f-1     :     0.000973
      f+2     :     0.000001
      f-2     :     0.000000
      f+3     :     0.000000
      f-3     :     0.000000
 12 N s       :     3.387119  s :     3.387119
      pz      :     1.400587  p :     3.968855
      px      :     1.284137
      py      :     1.284132
      dz2     :     0.007554  d :     0.034351
      dxz     :     0.013400
      dyz     :     0.013400
      dx2y2   :     0.000003
      dxy     :    -0.000007
      f0      :     0.000134  f :     0.002080
      f+1     :     0.000973
      f-1     :     0.000973
      f+2     :     0.000001
      f-2     :     0.000000
      f+3     :     0.000000
      f-3     :     0.000000


                     *******************************
                     * LOEWDIN POPULATION ANALYSIS *
                     *******************************

----------------------
LOEWDIN ATOMIC CHARGES
----------------------
   0 Fe:   -0.110198
   1 C :   -0.356887
   2 C :   -0.356919
   3 C :   -0.356857
   4 C :   -0.356866
   5 C :   -0.356789
   6 C :   -0.356790
   7 N :   -0.291458
   8 N :   -0.291439
   9 N :   -0.291432
  10 N :   -0.291431
  11 N :   -0.291466
  12 N :   -0.291467

-------------------------------
LOEWDIN REDUCED ORBITAL CHARGES
-------------------------------
  0 Fes       :     6.222968  s :     6.222968
      pz      :     4.444538  p :    13.333687
      px      :     4.444586
      py      :     4.444563
      dz2     :     0.826733  d :     6.552784
      dxz     :     1.633033
      dyz     :     1.633089
      dx2y2   :     0.826936
      dxy     :     1.632994
      f0      :     0.000231  f :     0.000758
      f+1     :     0.000100
      f-1     :     0.000100
      f+2     :     0.000021
      f-2     :     0.000000
      f+3     :     0.000153
      f-3     :     0.000153
  1 C s       :     3.079935  s :     3.079935
      pz      :     0.782421  p :     2.839651
      px      :     1.274815
      py      :     0.782414
      dz2     :     0.037318  d :     0.383509
      dxz     :     0.122654
      dyz     :     0.002784
      dx2y2   :     0.098093
      dxy     :     0.122660
      f0      :     0.006369  f :     0.053792
      f+1     :     0.007642
      f-1     :     0.001028
      f+2     :     0.010304
      f-2     :     0.000368
      f+3     :     0.012437
      f-3     :     0.015644
  2 C s       :     3.079942  s :     3.079942
      pz      :     0.782421  p :     2.839680
      px      :     1.274841
      py      :     0.782418
      dz2     :     0.037315  d :     0.383501
      dxz     :     0.122653
      dyz     :     0.002784
      dx2y2   :     0.098093
      dxy     :     0.122656
      f0      :     0.006369  f :     0.053795
      f+1     :     0.007642
      f-1     :     0.001028
      f+2     :     0.010305
      f-2     :     0.000368
      f+3     :     0.012437
      f-3     :     0.015646
  3 C s       :     3.079966  s :     3.079966
      pz      :     0.782415  p :     2.839648
      px      :     0.782402
      py      :     1.274830
      dz2     :     0.037312  d :     0.383452
      dxz     :     0.002782
      dyz     :     0.122634
      dx2y2   :     0.098080
      dxy     :     0.122644
      f0      :     0.006369  f :     0.053791
      f+1     :     0.001028
      f-1     :     0.007641
      f+2     :     0.010304
      f-2     :     0.000368
      f+3     :     0.015645
      f-3     :     0.012435
  4 C s       :     3.079978  s :     3.079978
      pz      :     0.782411  p :     2.839656
      px      :     0.782405
      py      :     1.274840
      dz2     :     0.037310  d :     0.383442
      dxz     :     0.002782
      dyz     :     0.122632
      dx2y2   :     0.098079
      dxy     :     0.122639
      f0      :     0.006369  f :     0.053791
      f+1     :     0.001028
      f-1     :     0.007641
      f+2     :     0.010304
      f-2     :     0.000368
      f+3     :     0.015645
      f-3     :     0.012435
  5 C s       :     3.080032  s :     3.080032
      pz      :     1.274814  p :     2.839597
      px      :     0.782389
      py      :     0.782395
      dz2     :     0.128447  d :     0.383379
      dxz     :     0.122617
      dyz     :     0.122613
      dx2y2   :     0.006922
      dxy     :     0.002781
      f0      :     0.019622  f :     0.053781
      f+1     :     0.016626
      f-1     :     0.016626
      f+2     :     0.000451
      f-2     :     0.000368
      f+3     :     0.000045
      f-3     :     0.000045
  6 C s       :     3.080031  s :     3.080031
      pz      :     1.274813  p :     2.839597
      px      :     0.782390
      py      :     0.782394
      dz2     :     0.128447  d :     0.383380
      dxz     :     0.122617
      dyz     :     0.122614
      dx2y2   :     0.006922
      dxy     :     0.002781
      f0      :     0.019622  f :     0.053781
      f+1     :     0.016626
      f-1     :     0.016626
      f+2     :     0.000451
      f-2     :     0.000368
      f+3     :     0.000045
      f-3     :     0.000045
  7 N s       :     3.312120  s :     3.312120
      pz      :     1.173518  p :     3.883467
      px      :     1.536427
      py      :     1.173522
      dz2     :     0.011603  d :     0.083909
      dxz     :     0.018753
      dyz     :     0.000002
      dx2y2   :     0.034800
      dxy     :     0.018753
      f0      :     0.001082  f :     0.011962
      f+1     :     0.002322
      f-1     :     0.000180
      f+2     :     0.001802
      f-2     :     0.000001
      f+3     :     0.003870
      f-3     :     0.002705
  8 N s       :     3.312100  s :     3.312100
      pz      :     1.173507  p :     3.883462
      px      :     1.536445
      py      :     1.173510
      dz2     :     0.011603  d :     0.083914
      dxz     :     0.018754
      dyz     :     0.000002
      dx2y2   :     0.034800
      dxy     :     0.018754
      f0      :     0.001083  f :     0.011964
      f+1     :     0.002322
      f-1     :     0.000180
      f+2     :     0.001802
      f-2     :     0.000001
      f+3     :     0.003870
      f-3     :     0.002705
  9 N s       :     3.312112  s :     3.312112
      pz      :     1.173497  p :     3.883445
      px      :     1.173505
      py      :     1.536443
      dz2     :     0.011603  d :     0.083912
      dxz     :     0.000002
      dyz     :     0.018754
      dx2y2   :     0.034801
      dxy     :     0.018753
      f0      :     0.001083  f :     0.011963
      f+1     :     0.000180
      f-1     :     0.002322
      f+2     :     0.001802
      f-2     :     0.000001
      f+3     :     0.002705
      f-3     :     0.003870
 10 N s       :     3.312108  s :     3.312108
      pz      :     1.173495  p :     3.883446
      px      :     1.173502
      py      :     1.536450
      dz2     :     0.011603  d :     0.083913
      dxz     :     0.000002
      dyz     :     0.018754
      dx2y2   :     0.034801
      dxy     :     0.018754
      f0      :     0.001083  f :     0.011964
      f+1     :     0.000180
      f-1     :     0.002322
      f+2     :     0.001802
      f-2     :     0.000001
      f+3     :     0.002705
      f-3     :     0.003870
 11 N s       :     3.312146  s :     3.312146
      pz      :     1.536436  p :     3.883453
      px      :     1.173510
      py      :     1.173507
      dz2     :     0.046398  d :     0.083906
      dxz     :     0.018751
      dyz     :     0.018751
      dx2y2   :     0.000004
      dxy     :     0.000002
      f0      :     0.006191  f :     0.011961
      f+1     :     0.002884
      f-1     :     0.002884
      f+2     :     0.000000
      f-2     :     0.000001
      f+3     :     0.000000
      f-3     :     0.000000
 12 N s       :     3.312147  s :     3.312147
      pz      :     1.536435  p :     3.883454
      px      :     1.173511
      py      :     1.173507
      dz2     :     0.046398  d :     0.083906
      dxz     :     0.018751
      dyz     :     0.018751
      dx2y2   :     0.000004
      dxy     :     0.000002
      f0      :     0.006191  f :     0.011961
      f+1     :     0.002884
      f-1     :     0.002884
      f+2     :     0.000000
      f-2     :     0.000001
      f+3     :     0.000000
      f-3     :     0.000000


                      *****************************
                      * MAYER POPULATION ANALYSIS *
                      *****************************

  NA   - Mulliken gross atomic population
  ZA   - Total nuclear charge
  QA   - Mulliken gross atomic charge
  VA   - Mayer's total valence
  BVA  - Mayer's bonded valence
  FA   - Mayer's free valence

  ATOM       NA         ZA         QA         VA         BVA        FA
  0 Fe    26.3254    26.0000    -0.3254     6.3826     6.3826    -0.0000
  1 C      6.2199     6.0000    -0.2199     3.7443     3.7443     0.0000
  2 C      6.2201     6.0000    -0.2201     3.7444     3.7444     0.0000
  3 C      6.2200     6.0000    -0.2200     3.7444     3.7444     0.0000
  4 C      6.2201     6.0000    -0.2201     3.7444     3.7444    -0.0000
  5 C      6.2200     6.0000    -0.2200     3.7443     3.7443     0.0000
  6 C      6.2200     6.0000    -0.2200     3.7443     3.7443     0.0000
  7 N      7.3925     7.0000    -0.3925     2.9784     2.9784     0.0000
  8 N      7.3924     7.0000    -0.3924     2.9784     2.9784    -0.0000
  9 N      7.3924     7.0000    -0.3924     2.9784     2.9784    -0.0000
 10 N      7.3923     7.0000    -0.3923     2.9784     2.9784     0.0000
 11 N      7.3924     7.0000    -0.3924     2.9783     2.9783    -0.0000
 12 N      7.3924     7.0000    -0.3924     2.9783     2.9783    -0.0000

  Mayer bond orders larger than 0.100000
B(  0-Fe,  1-C ) :   0.8977 B(  0-Fe,  2-C ) :   0.8978 B(  0-Fe,  3-C ) :   0.8977 
B(  0-Fe,  4-C ) :   0.8977 B(  0-Fe,  5-C ) :   0.8976 B(  0-Fe,  6-C ) :   0.8976 
B(  0-Fe,  7-N ) :   0.1662 B(  0-Fe,  8-N ) :   0.1661 B(  0-Fe,  9-N ) :   0.1661 
B(  0-Fe, 10-N ) :   0.1661 B(  0-Fe, 11-N ) :   0.1660 B(  0-Fe, 12-N ) :   0.1661 
B(  1-C ,  7-N ) :   2.7962 B(  2-C ,  8-N ) :   2.7963 B(  3-C ,  9-N ) :   2.7963 
B(  4-C , 10-N ) :   2.7963 B(  5-C , 11-N ) :   2.7963 B(  6-C , 12-N ) :   2.7963 


-------
TIMINGS
-------

Total SCF time: 0 days 0 hours 8 min 57 sec 

Total time                  ....     537.954 sec
Sum of individual times     ....     537.155 sec  ( 99.9%)

Fock matrix formation       ....     530.305 sec  ( 98.6%)
  XC integration            ....      24.823 sec  (  4.7% of F)
    Basis function eval.    ....       8.102 sec  ( 32.6% of XC)
    Density eval.           ....       6.385 sec  ( 25.7% of XC)
    XC-Functional eval.     ....       0.957 sec  (  3.9% of XC)
    XC-Potential eval.      ....       7.769 sec  ( 31.3% of XC)
Diagonalization             ....       2.988 sec  (  0.6%)
Density matrix formation    ....       0.146 sec  (  0.0%)
Population analysis         ....       0.030 sec  (  0.0%)
Initial guess               ....       0.627 sec  (  0.1%)
Orbital Transformation      ....       0.000 sec  (  0.0%)
Orbital Orthonormalization  ....       0.000 sec  (  0.0%)
DIIS solution               ....       1.298 sec  (  0.2%)
Grid generation             ....       1.762 sec  (  0.3%)

-------------------------   --------------------
FINAL SINGLE POINT ENERGY     -1820.276502607715
-------------------------   --------------------


                            ***************************************
                            *     ORCA property calculations      *
                            ***************************************

                                    ---------------------
                                    Active property flags
                                    ---------------------
   (+) Dipole Moment
   (+) Nuclear properties (Hyperfine,Quadrupole)


------------------------------------------------------------------------------
                       ORCA ELECTRIC PROPERTIES CALCULATION
------------------------------------------------------------------------------

Dipole Moment Calculation                       ... on
Quadrupole Moment Calculation                   ... off
Polarizability Calculation                      ... off
GBWName                                         ... fe2cn6.gbw
Electron density file                           ... fe2cn6.scfp
The origin for moment calculation is the CENTER OF MASS  = (-0.000023, -0.000012 -0.000000)

-------------
DIPOLE MOMENT
-------------
                                X             Y             Z
Electronic contribution:     -0.00037      -0.00018      -0.00001
Nuclear contribution   :      0.00019       0.00010       0.00000
                        -----------------------------------------
Total Dipole Moment    :     -0.00018      -0.00008      -0.00000
                        -----------------------------------------
Magnitude (a.u.)       :      0.00020
Magnitude (Debye)      :      0.00050



--------------------
Rotational spectrum 
--------------------
 
Rotational constants in cm-1:     0.023534     0.023532     0.023531 
Rotational constants in MHz :   705.530186   705.481635   705.441925 

 Dipole components along the rotational axes: 
x,y,z [a.u.] :    -0.000042    -0.000061     0.000181 
x,y,z [Debye]:    -0.000107    -0.000154     0.000460 

 


           ************************************************************
           *        Program running with 8 parallel MPI-processes     *
           *              working on a common directory               *
           ************************************************************
------------------------------------------------------------------------------
                                ORCA EPR/NMR CALCULATION
------------------------------------------------------------------------------

GBWName                      ... fe2cn6.gbw
Electron density file        ... fe2cn6.scfp
Spin density file            ... fe2cn6.scfr
Multiplicity                 ... 1
g-tensor                     ... 0
NMR chemical shifts          ... 0
Number of nuclei for epr/nmr ... 1
   Nucleus:   0Fe
       Hyperfine : Isotope=   57 I=   0.500 P=  17.280
       Quadrupole: Isotope=   57 I=   0.500 Q=   0.160
       Spin-Orbit: Zeff=  13.910
       Ncuelar Spin-Spin: Gn=   0.000
       rho(0)=Y f(grad)=Y a(iso)=N a(dip)=N a(orb)=N sigma(nmr)=N spin-spin(nmr)=all-N,DSO-N,PSO-N,FC-N,SD-N

-----------------------------------------
ELECTRIC AND MAGNETIC HYPERFINE STRUCTURE
-----------------------------------------

 -----------------------------------------------------------
 Nucleus   0Fe: A:ISTP=   57 I=  0.5 P= 17.2798 MHz/au**3
                Q:ISTP=   57 I=  0.5 Q=  0.1600 barn     
 -----------------------------------------------------------
 Raw EFG matrix (all values in a.u.**-3):
            -0.0016      -0.0000       0.0001
            -0.0000      -0.0000       0.0000
             0.0001       0.0000       0.0016

 V(El)      -0.0000      -0.0018       0.0018
 V(Nuc)      0.0000       0.0002      -0.0002
         ----------   ----------   ----------
 V(Tot)     -0.0000      -0.0016       0.0016 
 Orientation: 
  X      -0.0099355    0.9997561   -0.0197229
  Y       0.9999433    0.0098578   -0.0040303
  Z      -0.0038349   -0.0197619   -0.9997974

Note: Tensor is right-handed

Moessbauer quadrupole splitting parameter (proper coordinate system)
 e**2qQ  =    0.060 MHz =    0.005 mm/s
 eta     =  0.965
 Delta-EQ=(1/2{e**2qQ}*sqrt(1+1/3*eta**2) =    0.034 MHz =    0.003 mm/s
 RHO(0)=  11817.750300567 a.u.**-3


------------------------------------------------------------------------------- 

Timings for individual modules:

Sum of individual times         ...      539.394 sec (=   8.990 min)
GTO integral calculation        ...        0.759 sec (=   0.013 min)   0.1 %
SCF iterations                  ...      538.175 sec (=   8.970 min)  99.8 %
EPR/NMR calculation             ...        0.461 sec (=   0.008 min)   0.1 %
                             ****ORCA TERMINATED NORMALLY****
TOTAL RUN TIME: 0 days 0 hours 8 minutes 59 seconds 839 msec
