
                                 *****************
                                 * O   R   C   A *
                                 *****************

           --- An Ab Initio, DFT and Semiempirical electronic structure package ---

                  #######################################################
                  #                        -***-                        #
                  #          Department of theory and spectroscopy      #
                  #               Directorship: Frank Neese             #
                  #        Max Planck Institute fuer Kohlenforschung    #
                  #                Kaiser Wilhelm Platz 1               #
                  #                 D-45470 Muelheim/Ruhr               #
                  #                      Germany                        #
                  #                                                     #
                  #                  All rights reserved                #
                  #                        -***-                        #
                  #######################################################


                         Program Version 4.2.1 -  RELEASE  -


 With contributions from (in alphabetic order):
   Daniel Aravena         : Magnetic Suceptibility
   Michael Atanasov       : Ab Initio Ligand Field Theory (pilot matlab implementation)
   Alexander A. Auer      : GIAO ZORA, VPT2
   Ute Becker             : Parallelization
   Giovanni Bistoni       : ED, misc. LED, open-shell LED, HFLD
   Martin Brehm           : Molecular dynamics
   Dmytro Bykov           : SCF Hessian
   Vijay G. Chilkuri      : MRCI spin determinant printing, contributions to CSF-ICE
   Dipayan Datta          : RHF DLPNO-CCSD density
   Achintya Kumar Dutta   : EOM-CC, STEOM-CC
   Dmitry Ganyushin       : Spin-Orbit,Spin-Spin,Magnetic field MRCI
   Miquel Garcia          : C-PCM Hessian, Gaussian charge scheme
   Yang Guo               : DLPNO-NEVPT2, CIM, IAO-localization
   Andreas Hansen         : Spin unrestricted coupled pair/coupled cluster methods
   Benjamin Helmich-Paris : CASSCF linear response (MC-RPA)
   Lee Huntington         : MR-EOM, pCC
   Robert Izsak           : Overlap fitted RIJCOSX, COSX-SCS-MP3, EOM
   Christian Kollmar      : KDIIS, OOCD, Brueckner-CCSD(T), CCSD density
   Simone Kossmann        : Meta GGA functionals, TD-DFT gradient, OOMP2, MP2 Hessian
   Martin Krupicka        : AUTO-CI
   Lucas Lang             : DCDCAS
   Dagmar Lenk            : GEPOL surface, SMD
   Dimitrios Liakos       : Extrapolation schemes; Compound Job, initial MDCI parallelization
   Dimitrios Manganas     : Further ROCIS development; embedding schemes
   Dimitrios Pantazis     : SARC Basis sets
   Taras Petrenko         : DFT Hessian,TD-DFT gradient, ASA, ECA, R-Raman, ABS, FL, XAS/XES, NRVS
   Peter Pinski           : DLPNO-MP2, DLPNO-MP2 Gradient
   Christoph Reimann      : Effective Core Potentials
   Marius Retegan         : Local ZFS, SOC
   Christoph Riplinger    : Optimizer, TS searches, QM/MM, DLPNO-CCSD(T), (RO)-DLPNO pert. Triples
   Tobias Risthaus        : Range-separated hybrids, TD-DFT gradient, RPA, STAB
   Michael Roemelt        : Original ROCIS implementation
   Masaaki Saitow         : Open-shell DLPNO-CCSD energy and density
   Barbara Sandhoefer     : DKH picture change effects
   Avijit Sen             : IP-ROCIS
   Kantharuban Sivalingam : CASSCF convergence, NEVPT2, FIC-MRCI
   Bernardo de Souza      : ESD, SOC TD-DFT
   Georgi Stoychev        : AutoAux, RI-MP2 NMR
   Willem Van den Heuvel  : Paramagnetic NMR
   Boris Wezisla          : Elementary symmetry handling
   Frank Wennmohs         : Technical directorship


 We gratefully acknowledge several colleagues who have allowed us to
 interface, adapt or use parts of their codes:
   Stefan Grimme, W. Hujo, H. Kruse,             : VdW corrections, initial TS optimization,
                  C. Bannwarth                     DFT functionals, gCP, sTDA/sTD-DF
   Ed Valeev, F. Pavosevic, A. Kumar             : LibInt (2-el integral package), F12 methods
   Garnet Chan, S. Sharma, J. Yang, R. Olivares  : DMRG
   Ulf Ekstrom                                   : XCFun DFT Library
   Mihaly Kallay                                 : mrcc  (arbitrary order and MRCC methods)
   Andreas Klamt, Michael Diedenhofen            : otool_cosmo (COSMO solvation model)
   Jiri Pittner, Ondrej Demel                    : Mk-CCSD
   Frank Weinhold                                : gennbo (NPA and NBO analysis)
   Christopher J. Cramer and Donald G. Truhlar   : smd solvation model
   Lars Goerigk                                  : TD-DFT with DH, B97 family of functionals
   V. Asgeirsson, H. Jonsson                     : NEB implementation
   FAccTs GmbH                                   : IRC, NEB, NEB-TS, Multilevel, MM, QM/MM, CI optimization
   S Lehtola, MJT Oliveira, MAL Marques          : LibXC Library


 Your calculation uses the libint2 library for the computation of 2-el integrals
 For citations please refer to: http://libint.valeyev.net

 Your ORCA version has been built with support for libXC version: 4.2.3
 For citations please refer to: https://tddft.org/programs/libxc/

 This ORCA versions uses:
   CBLAS   interface :  Fast vector & matrix operations
   LAPACKE interface :  Fast linear algebra routines
   SCALAPACK package :  Parallel linear algebra routines


----- Orbital basis set information -----
Your calculation utilizes the basis: 6-31G
   H-He, Li-Ne : W. J. Hehre, R. Ditchfield and J.A. Pople, J. Chem. Phys. 56, 2257 (1972).
                 Note: He and Ne are unpublished basis sets taken from the Gaussian program.
                 Note: Li and B from J. D. Dill and J. A. Pople, J. Chem. Phys. 62, 2921 (1975).
   Na - Ar     : M. M. Francl, W. J. Pietro, W. J. Hehre, J. S. Binkley, M. S. Gordon, 
                 D. J. DeFrees and J. A. Pople, J. Chem. Phys. 77, 3654 (1982).
   K - Zn      : V. A. Rassolov, J. A. Pople, M. A. Ratner, and T. L. Windus, J. Chem. Phys. 109, 1223 (1998).

================================================================================
                                        WARNINGS
                       Please study these warnings very carefully!
================================================================================


WARNING: your system is open-shell and RHF/RKS was chosen
  ===> : WILL SWITCH to UHF/UKS


INFO   : the flag for use of LIBINT has been found!

================================================================================
                                       INPUT FILE
================================================================================
NAME = fe3f6.inp
|  1> ! DFT B3LYP 6-31g TightSCF Grid5 NoFinalGrid SlowConv
|  2> %pal
|  3> nprocs 16
|  4> end
|  5> %method SpecialGridAtoms 26
|  6> SpecialGridIntAcc 7
|  7> end
|  8> %basis NewGTO 26 "CP(PPP)" end
|  9> end
| 10> # [Fe(lll)(F)6]3- , s = 5/2 ,  m = 2s + 1
| 11> * xyz -3 6
| 12> Fe 0.000010  0.000005 -0.000000
| 13> F  1.977708  0.000020 -0.000007
| 14> F -1.977772  0.000020  0.000008
| 15> F  0.000014  1.977718 -0.000001
| 16> F  0.000014 -1.977750 -0.000000
| 17> F  0.000005 -0.000007  1.977728
| 18> F  0.000021 -0.000006 -1.977728
| 19> *
| 20> # Note that the EPR block needs to below the coordinate block for 
| 21> # the “all Fe” command (all irons) to be recognized. 
| 22> %eprnmr nuclei = all Fe {rho, fgrad}
| 23> end
| 24> 
| 25>                          ****END OF INPUT****
================================================================================

                       ****************************
                       * Single Point Calculation *
                       ****************************

---------------------------------
CARTESIAN COORDINATES (ANGSTROEM)
---------------------------------
  Fe     0.000010    0.000005   -0.000000
  F      1.977708    0.000020   -0.000007
  F     -1.977772    0.000020    0.000008
  F      0.000014    1.977718   -0.000001
  F      0.000014   -1.977750   -0.000000
  F      0.000005   -0.000007    1.977728
  F      0.000021   -0.000006   -1.977728

----------------------------
CARTESIAN COORDINATES (A.U.)
----------------------------
  NO LB      ZA    FRAG     MASS         X           Y           Z
   0 Fe   26.0000    0    55.850    0.000019    0.000009   -0.000000
   1 F     9.0000    0    18.998    3.737326    0.000038   -0.000013
   2 F     9.0000    0    18.998   -3.737447    0.000038    0.000015
   3 F     9.0000    0    18.998    0.000026    3.737345   -0.000002
   4 F     9.0000    0    18.998    0.000026   -3.737406   -0.000000
   5 F     9.0000    0    18.998    0.000009   -0.000013    3.737364
   6 F     9.0000    0    18.998    0.000040   -0.000011   -3.737364

--------------------------------
INTERNAL COORDINATES (ANGSTROEM)
--------------------------------
 Fe     0   0   0     0.000000000000     0.00000000     0.00000000
 F      1   0   0     1.977698000069     0.00000000     0.00000000
 F      1   2   0     1.977782000073   179.99913041     0.00000000
 F      1   2   3     1.977713000004    89.99944955     1.90857370
 F      1   2   4     1.977755000004    90.00031868   179.99997102
 F      1   2   4     1.977728000043    90.00034765   269.99962339
 F      1   2   4     1.977728000061    89.99947853    90.00028971

---------------------------
INTERNAL COORDINATES (A.U.)
---------------------------
 Fe     0   0   0     0.000000000000     0.00000000     0.00000000
 F      1   0   0     3.737307595735     0.00000000     0.00000000
 F      1   2   0     3.737466332737   179.99913041     0.00000000
 F      1   2   3     3.737335941504    89.99944955     1.90857370
 F      1   2   4     3.737415310001    90.00031868   179.99997102
 F      1   2   4     3.737364287469    90.00034765   269.99962339
 F      1   2   4     3.737364287503    89.99947853    90.00028971

---------------------
BASIS SET INFORMATION
---------------------
There are 2 groups of distinct atoms

 Group   1 Type Fe  : 17s11p5d1f contracted to 17s7p3d1f pattern {11111111111111111/3311111/311/1}
 Group   2 Type F   : 10s4p contracted to 3s2p pattern {631/31}

Atom   0Fe   basis set group =>   1
Atom   1F    basis set group =>   2
Atom   2F    basis set group =>   2
Atom   3F    basis set group =>   2
Atom   4F    basis set group =>   2
Atom   5F    basis set group =>   2
Atom   6F    basis set group =>   2


           ************************************************************
           *        Program running with 16 parallel MPI-processes    *
           *              working on a common directory               *
           ************************************************************
------------------------------------------------------------------------------
                           ORCA GTO INTEGRAL CALCULATION
------------------------------------------------------------------------------

                         BASIS SET STATISTICS AND STARTUP INFO

 # of primitive gaussian shells          ...  118
 # of primitive gaussian functions       ...  214
 # of contracted shells                  ...   58
 # of contracted basis functions         ...  114
 Highest angular momentum                ...    3
 Maximum contraction depth               ...    6
 Integral package used                   ... LIBINT
 Integral threshhold            Thresh   ...  2.500e-11
 Primitive cut-off              TCut     ...  2.500e-12


------------------------------ INTEGRAL EVALUATION ----------------------------


 * One electron integrals 
 Pre-screening matrix                    ... done
 Shell pair data                         ... done (   0.001 sec)



           ************************************************************
           *        Program running with 16 parallel MPI-processes    *
           *              working on a common directory               *
           ************************************************************
-------------------------------------------------------------------------------
                                 ORCA SCF
-------------------------------------------------------------------------------

------------
SCF SETTINGS
------------
Hamiltonian:
 Density Functional     Method          .... DFT(GTOs)
 Exchange Functional    Exchange        .... B88
   X-Alpha parameter    XAlpha          ....  0.666667
   Becke's b parameter  XBeta           ....  0.004200
 Correlation Functional Correlation     .... LYP
 LDA part of GGA corr.  LDAOpt          .... VWN-5
 Gradients option       PostSCFGGA      .... off
 Hybrid DFT is turned on
   Fraction HF Exchange ScalHFX         ....  0.200000
   Scaling of DF-GGA-X  ScalDFX         ....  0.720000
   Scaling of DF-GGA-C  ScalDFC         ....  0.810000
   Scaling of DF-LDA-C  ScalLDAC        ....  1.000000
   Perturbative correction              ....  0.000000
   Density functional embedding theory  .... OFF
   NL short-range parameter             ....  4.800000


General Settings:
 Integral files         IntName         .... fe3f6
 Hartree-Fock type      HFTyp           .... UHF
 Total Charge           Charge          ....   -3
 Multiplicity           Mult            ....    6
 Number of Electrons    NEL             ....   83
 Basis Dimension        Dim             ....  114
 Nuclear Repulsion      ENuc            ....    592.0752991335 Eh

Convergence Acceleration:
 DIIS                   CNVDIIS         .... on
   Start iteration      DIISMaxIt       ....     0
   Startup error        DIISStart       ....  0.200000
   # of expansion vecs  DIISMaxEq       ....     5
   Bias factor          DIISBfac        ....   1.050
   Max. coefficient     DIISMaxC        ....  10.000
 Newton-Raphson         CNVNR           .... off
 SOSCF                  CNVSOSCF        .... off
 Level Shifting         CNVShift        .... on
   Level shift para.    LevelShift      ....    0.2500
   Turn off err/grad.   ShiftErr        ....    0.0000
 Zerner damping         CNVZerner       .... off
 Static damping         CNVDamp         .... on
   Fraction old density DampFac         ....    0.8500
   Max. Damping (<1)    DampMax         ....    0.9800
   Min. Damping (>=0)   DampMin         ....    0.0000
   Turn off err/grad.   DampErr         ....    0.0300
 Fernandez-Rico         CNVRico         .... off

SCF Procedure:
 Maximum # iterations   MaxIter         ....   125
 SCF integral mode      SCFMode         .... Direct
   Integral package                     .... LIBINT
 Reset frequency        DirectResetFreq ....    20
 Integral Threshold     Thresh          ....  2.500e-11 Eh
 Primitive CutOff       TCut            ....  2.500e-12 Eh

Convergence Tolerance:
 Convergence Check Mode ConvCheckMode   .... Total+1el-Energy
 Convergence forced     ConvForced      .... 0
 Energy Change          TolE            ....  1.000e-08 Eh
 1-El. energy change                    ....  1.000e-05 Eh
 DIIS Error             TolErr          ....  5.000e-07


Diagonalization of the overlap matrix:
Smallest eigenvalue                        ... 6.242e-03
Time for diagonalization                   ...    0.004 sec
Threshold for overlap eigenvalues          ... 1.000e-08
Number of eigenvalues below threshold      ... 0
Time for construction of square roots      ...    0.003 sec
Total time needed                          ...    0.007 sec

-------------------
DFT GRID GENERATION
-------------------

General Integration Accuracy     IntAcc      ...  5.010
Radial Grid Type                 RadialGrid  ... Gauss-Chebyshev
Angular Grid (max. acc.)         AngularGrid ... Lebedev-434
Angular grid pruning method      GridPruning ... 3 (G Style)
Weight generation scheme         WeightScheme... Becke
Basis function cutoff            BFCut       ...    1.0000e-11
Integration weight cutoff        WCut        ...    1.0000e-14
Grids for H and He will be reduced by one unit

SpecialGrid => Setting IntAcc for atom type =  26 to   7.0000
# of grid points (after initial pruning)     ...  89474 (   0.0 sec)
# of grid points (after weights+screening)   ...  86642 (   0.0 sec)
nearest neighbour list constructed           ...    0.0 sec
Grid point re-assignment to atoms done       ...    0.0 sec
Grid point division into batches done        ...    1.0 sec
Reduced shell lists constructed in    1.0 sec

Total number of grid points                  ...    86642
Total number of batches                      ...     1357
Average number of points per batch           ...       63
Average number of grid points per atom       ...    12377
Average number of shells per batch           ...    36.92 (63.65%)
Average number of basis functions per batch  ...    87.73 (76.96%)
Average number of large shells per batch     ...    31.59 (85.57%)
Average number of large basis fcns per batch ...    78.17 (89.11%)
Maximum spatial batch extension              ...   1.18,  1.23,  1.23 au
Average spatial batch extension              ...   0.06,  0.06,  0.06 au

Time for grid setup =    1.310 sec

------------------------------
INITIAL GUESS: MODEL POTENTIAL
------------------------------
Loading Hartree-Fock densities                     ... done
Calculating cut-offs                               ... done
Setting up the integral package                    ... done
Initializing the effective Hamiltonian             ... done
Starting the Coulomb interaction                   ... done (   0.0 sec)
Reading the grid                                   ... done
Mapping shells                                     ... done
Starting the XC term evaluation                    ... done (   0.0 sec)
  promolecular density results
     # of electrons  =     80.000019347
     EX              =   -114.440426281
     EC              =     -3.237054642
     EX+EC           =   -117.677480922
Transforming the Hamiltonian                       ... done (   0.0 sec)
Diagonalizing the Hamiltonian                      ... done (   0.0 sec)
Back transforming the eigenvectors                 ... done (   0.0 sec)
Now organizing SCF variables                       ... done
                      ------------------
                      INITIAL GUESS DONE (   1.4 sec)
                      ------------------
--------------
SCF ITERATIONS
--------------
ITER       Energy         Delta-E        Max-DP      RMS-DP      [F,P]     Damp
               ***  Starting incremental Fock matrix formation  ***
  0  -1861.7600488170   0.000000000000 0.04393003  0.00130405  0.5041729 0.8500
  1  -1861.9279561946  -0.167907377632 0.03673106  0.00110973  0.4295656 0.8500
                               ***Turning on DIIS***
  2  -1861.9916683696  -0.063712174965 0.01669665  0.00071979  0.3655392 0.8500
  3  -1862.0328923731  -0.041224003537 0.00913352  0.00036964  0.3106943 0.8500
  4  -1862.0706464719  -0.037754098786 0.00436816  0.00023800  0.2638766 0.8500
  5  -1862.1004967524  -0.029850280443 0.00341512  0.00018904  0.2243740 0.8500
  6  -1862.1258821668  -0.025385414468 0.00319196  0.00016689  0.1908567 0.8500
  7  -1862.1476605858  -0.021778418925 0.00486105  0.00016966  0.1622920 0.8500
  8  -1862.1663221386  -0.018661552867 0.00314524  0.00013028  0.1379587 0.8500
  9  -1862.1821051976  -0.015783058923 0.00181234  0.00010235  0.1171889 0.8500
 10  -1862.1953465133  -0.013241315741 0.00175840  0.00008822  0.0995708 0.8500
 11  -1862.2065321503  -0.011185637010 0.00198103  0.00007887  0.0846515 0.8500
 12  -1862.2160198606  -0.009487710290 0.00191729  0.00006891  0.0719820 0.8500
 13  -1862.2240694220  -0.008049561368 0.00146808  0.00005652  0.0611958 0.8500
 14  -1862.2308977380  -0.006828316072 0.00110368  0.00004681  0.0520053 0.8500
 15  -1862.2366862342  -0.005788496144 0.00098465  0.00004025  0.0441936 0.8500
 16  -1862.2415965789  -0.004910344762 0.00093720  0.00003503  0.0375651 0.8500
 17  -1862.2457646827  -0.004168103789 0.00082727  0.00002987  0.0319361 0.8500
 18  -1862.2493037101  -0.003539027348 0.00446286  0.00016639  0.0271482 0.0000
 19  -1862.2692947924  -0.019991082319 0.00012832  0.00000687  0.0002838 0.0000
               *** Restarting incremental Fock matrix formation ***
                                   *** Resetting DIIS ***
 20  -1862.2692951389  -0.000000346535 0.00012275  0.00000504  0.0002475 0.0000
 21  -1862.2692952386  -0.000000099702 0.00004822  0.00000202  0.0002233 0.0000
 22  -1862.2692954390  -0.000000200326 0.00001659  0.00000056  0.0000237 0.0000
 23  -1862.2692954447  -0.000000005720 0.00000819  0.00000026  0.0000086 0.0000
 24  -1862.2692954463  -0.000000001663 0.00000346  0.00000014  0.0000072 0.0000
 25  -1862.2692954462   0.000000000112 0.00000175  0.00000009  0.0000023 0.0000
                            ***DIIS convergence achieved***

               *****************************************************
               *                     SUCCESS                       *
               *           SCF CONVERGED AFTER  26 CYCLES          *
               *****************************************************


----------------
TOTAL SCF ENERGY
----------------

Total Energy       :        -1862.26929545 Eh          -50674.92379 eV

Components:
Nuclear Repulsion  :          592.07529913 Eh           16111.18797 eV
Electronic Energy  :        -2454.34459458 Eh          -66786.11176 eV
One Electron Energy:        -3817.40813888 Eh         -103876.95646 eV
Two Electron Energy:         1363.06354430 Eh           37090.84470 eV

Virial components:
Potential Energy   :        -3720.96953813 Eh         -101252.72872 eV
Kinetic Energy     :         1858.70024269 Eh           50577.80493 eV
Virial Ratio       :            2.00192019


DFT components:
N(Alpha)           :       43.999999907574 electrons
N(Beta)            :       39.000000457380 electrons
N(Total)           :       83.000000364954 electrons
E(X)               :      -92.240623344544 Eh       
E(C)               :       -3.880711629418 Eh       
E(XC)              :      -96.121334973961 Eh       
DFET-embed. en.    :        0.000000000000 Eh       

---------------
SCF CONVERGENCE
---------------

  Last Energy change         ...    1.0930e-09  Tolerance :   1.0000e-08
  Last MAX-Density change    ...    9.1380e-07  Tolerance :   1.0000e-07
  Last RMS-Density change    ...    4.6865e-08  Tolerance :   5.0000e-09
  Last DIIS Error            ...    7.9272e-07  Tolerance :   5.0000e-07

             **** THE GBW FILE WAS UPDATED (fe3f6.gbw) ****
             **** DENSITY FILE WAS UPDATED (fe3f6.scfp) ****
             **** ENERGY FILE WAS UPDATED (fe3f6.en.tmp) ****
----------------------
UHF SPIN CONTAMINATION
----------------------

Warning: in a DFT calculation there is little theoretical justification to 
         calculate <S**2> as in Hartree-Fock theory. We will do it anyways
         but you should keep in mind that the values have only limited relevance

Expectation value of <S**2>     :     8.753866
Ideal value S*(S+1) for S=2.5   :     8.750000
Deviation                       :     0.003866

             **** THE GBW FILE WAS UPDATED (fe3f6.gbw) ****
             **** DENSITY FILE WAS UPDATED (fe3f6.scfp) ****
----------------
ORBITAL ENERGIES
----------------
                 SPIN UP ORBITALS
  NO   OCC          E(Eh)            E(eV) 
   0   1.0000    -255.574492     -6954.5355 
   1   1.0000     -29.575030      -804.7775 
   2   1.0000     -25.427864      -691.9274 
   3   1.0000     -25.427864      -691.9274 
   4   1.0000     -25.427864      -691.9274 
   5   1.0000     -24.011077      -653.3746 
   6   1.0000     -24.011021      -653.3731 
   7   1.0000     -24.011021      -653.3731 
   8   1.0000     -24.011020      -653.3731 
   9   1.0000     -24.010966      -653.3716 
  10   1.0000     -24.010965      -653.3716 
  11   1.0000      -3.069619       -83.5286 
  12   1.0000      -1.843760       -50.1713 
  13   1.0000      -1.843760       -50.1713 
  14   1.0000      -1.843760       -50.1713 
  15   1.0000      -0.488615       -13.2959 
  16   1.0000      -0.475733       -12.9453 
  17   1.0000      -0.475732       -12.9453 
  18   1.0000      -0.475731       -12.9453 
  19   1.0000      -0.474307       -12.9065 
  20   1.0000      -0.474306       -12.9065 
  21   1.0000       0.110490         3.0066 
  22   1.0000       0.110491         3.0066 
  23   1.0000       0.134285         3.6541 
  24   1.0000       0.134285         3.6541 
  25   1.0000       0.134285         3.6541 
  26   1.0000       0.167156         4.5486 
  27   1.0000       0.209014         5.6876 
  28   1.0000       0.209015         5.6876 
  29   1.0000       0.209015         5.6876 
  30   1.0000       0.250170         6.8075 
  31   1.0000       0.250171         6.8075 
  32   1.0000       0.250171         6.8075 
  33   1.0000       0.259473         7.0606 
  34   1.0000       0.259474         7.0606 
  35   1.0000       0.259474         7.0607 
  36   1.0000       0.260106         7.0778 
  37   1.0000       0.260106         7.0778 
  38   1.0000       0.260106         7.0778 
  39   1.0000       0.272645         7.4191 
  40   1.0000       0.272646         7.4191 
  41   1.0000       0.272646         7.4191 
  42   1.0000       0.311315         8.4713 
  43   1.0000       0.311316         8.4713 
  44   0.0000       0.547160        14.8890 
  45   0.0000       0.550257        14.9733 
  46   0.0000       0.550258        14.9733 
  47   0.0000       0.550258        14.9733 
  48   0.0000       0.811693        22.0873 
  49   0.0000       0.929832        25.3020 
  50   0.0000       0.929834        25.3021 
  51   0.0000       0.929837        25.3021 
  52   0.0000       1.449445        39.4414 
  53   0.0000       1.449445        39.4414 
  54   0.0000       1.449445        39.4414 
  55   0.0000       1.765439        48.0401 
  56   0.0000       1.765444        48.0402 
  57   0.0000       1.812390        49.3176 
  58   0.0000       1.812392        49.3177 
  59   0.0000       1.812394        49.3177 
  60   0.0000       1.855044        50.4783 
  61   0.0000       1.855046        50.4784 
  62   0.0000       1.878053        51.1044 
  63   0.0000       1.878054        51.1045 
  64   0.0000       1.878055        51.1045 
  65   0.0000       1.899476        51.6874 
  66   0.0000       1.899477        51.6874 
  67   0.0000       1.899479        51.6875 
  68   0.0000       1.917273        52.1717 
  69   0.0000       1.917274        52.1717 
  70   0.0000       1.917275        52.1717 
  71   0.0000       1.931157        52.5494 
  72   0.0000       1.931157        52.5495 
  73   0.0000       1.931157        52.5495 
  74   0.0000       1.975231        53.7488 
  75   0.0000       2.364370        64.3378 
  76   0.0000       2.364371        64.3378 
  77   0.0000       2.364373        64.3378 
  78   0.0000       2.577729        70.1436 
  79   0.0000       2.577730        70.1436 
  80   0.0000       2.704109        73.5826 
  81   0.0000       2.704115        73.5827 
  82   0.0000       2.704120        73.5828 
  83   0.0000       2.843477        77.3749 
  84   0.0000       4.026833       109.5757 
  85   0.0000       5.491387       149.4282 
  86   0.0000       5.491388       149.4283 
  87   0.0000       5.491389       149.4283 
  88   0.0000       5.826620       158.5504 
  89   0.0000       5.826624       158.5505 
  90   0.0000       6.430516       174.9832 
  91   0.0000       6.434598       175.0943 
  92   0.0000       6.434598       175.0943 
  93   0.0000       6.434598       175.0943 
  94   0.0000       6.462870       175.8636 
  95   0.0000       6.462870       175.8636 
  96   0.0000       6.462871       175.8637 
  97   0.0000       9.749848       265.3068 
  98   0.0000       9.749849       265.3069 
  99   0.0000       9.749849       265.3069 
 100   0.0000      25.981865       707.0025 
 101   0.0000     167.839457      4567.1438 
 102   0.0000     216.822612      5900.0432 
 103   0.0000     216.822613      5900.0433 
 104   0.0000     216.822614      5900.0433 
 105   0.0000     722.353363     19656.2343 
 106   0.0000    2454.695899     66795.6712 
 107   0.0000    8072.074070    219652.3024 
 108   0.0000   28474.209803    774822.6400 
 109   0.0000   117241.194912   3190295.1050 
 110   0.0000   597781.406997   16266459.0552 
 111   0.0000   2211675.163667   60182740.8348 
 112   0.0000   6563629.861158   178605448.6476 
 113   0.0000   18768449.585506   510715477.4948 

                 SPIN DOWN ORBITALS
  NO   OCC          E(Eh)            E(eV) 
   0   1.0000    -255.574296     -6954.5301 
   1   1.0000     -29.477541      -802.1247 
   2   1.0000     -25.347577      -689.7426 
   3   1.0000     -25.347577      -689.7426 
   4   1.0000     -25.347577      -689.7426 
   5   1.0000     -24.006739      -653.2566 
   6   1.0000     -24.006685      -653.2551 
   7   1.0000     -24.006684      -653.2551 
   8   1.0000     -24.006683      -653.2551 
   9   1.0000     -24.006630      -653.2536 
  10   1.0000     -24.006629      -653.2536 
  11   1.0000      -2.842212       -77.3405 
  12   1.0000      -1.604136       -43.6508 
  13   1.0000      -1.604136       -43.6508 
  14   1.0000      -1.604136       -43.6507 
  15   1.0000      -0.478462       -13.0196 
  16   1.0000      -0.465226       -12.6595 
  17   1.0000      -0.465226       -12.6594 
  18   1.0000      -0.465225       -12.6594 
  19   1.0000      -0.463431       -12.6106 
  20   1.0000      -0.463430       -12.6106 
  21   1.0000       0.184566         5.0223 
  22   1.0000       0.213955         5.8220 
  23   1.0000       0.213957         5.8221 
  24   1.0000       0.224112         6.0984 
  25   1.0000       0.224112         6.0984 
  26   1.0000       0.224112         6.0984 
  27   1.0000       0.231861         6.3093 
  28   1.0000       0.231862         6.3093 
  29   1.0000       0.231862         6.3093 
  30   1.0000       0.261352         7.1117 
  31   1.0000       0.261352         7.1118 
  32   1.0000       0.261352         7.1118 
  33   1.0000       0.268412         7.3039 
  34   1.0000       0.268412         7.3039 
  35   1.0000       0.268413         7.3039 
  36   1.0000       0.281524         7.6607 
  37   1.0000       0.281524         7.6607 
  38   1.0000       0.281525         7.6607 
  39   0.0000       0.499464        13.5911 
  40   0.0000       0.499464        13.5911 
  41   0.0000       0.499464        13.5911 
  42   0.0000       0.544879        14.8269 
  43   0.0000       0.544881        14.8270 
  44   0.0000       0.547942        14.9103 
  45   0.0000       0.551759        15.0141 
  46   0.0000       0.551759        15.0141 
  47   0.0000       0.551759        15.0141 
  48   0.0000       0.848662        23.0933 
  49   0.0000       0.951013        25.8784 
  50   0.0000       0.951016        25.8785 
  51   0.0000       0.951018        25.8785 
  52   0.0000       1.504737        40.9460 
  53   0.0000       1.504737        40.9460 
  54   0.0000       1.504737        40.9460 
  55   0.0000       1.805574        49.1322 
  56   0.0000       1.805575        49.1322 
  57   0.0000       1.816957        49.4419 
  58   0.0000       1.816959        49.4420 
  59   0.0000       1.816961        49.4420 
  60   0.0000       1.879194        51.1355 
  61   0.0000       1.879199        51.1356 
  62   0.0000       1.883847        51.2621 
  63   0.0000       1.883848        51.2621 
  64   0.0000       1.883849        51.2621 
  65   0.0000       1.921603        52.2895 
  66   0.0000       1.921603        52.2895 
  67   0.0000       1.921604        52.2895 
  68   0.0000       1.924353        52.3643 
  69   0.0000       1.924355        52.3644 
  70   0.0000       1.924357        52.3644 
  71   0.0000       1.966157        53.5019 
  72   0.0000       1.966158        53.5019 
  73   0.0000       1.966158        53.5019 
  74   0.0000       1.982490        53.9463 
  75   0.0000       2.430324        66.1325 
  76   0.0000       2.430326        66.1325 
  77   0.0000       2.430327        66.1326 
  78   0.0000       2.604450        70.8707 
  79   0.0000       2.604451        70.8707 
  80   0.0000       2.712510        73.8111 
  81   0.0000       2.712515        73.8113 
  82   0.0000       2.712520        73.8114 
  83   0.0000       2.882650        78.4409 
  84   0.0000       4.123712       112.2119 
  85   0.0000       5.646343       153.6448 
  86   0.0000       5.646343       153.6448 
  87   0.0000       5.646344       153.6448 
  88   0.0000       5.967196       162.3757 
  89   0.0000       5.967200       162.3758 
  90   0.0000       6.645272       180.8270 
  91   0.0000       6.645272       180.8270 
  92   0.0000       6.645272       180.8270 
  93   0.0000       6.646628       180.8639 
  94   0.0000       6.668061       181.4472 
  95   0.0000       6.668062       181.4472 
  96   0.0000       6.668063       181.4472 
  97   0.0000       9.899655       269.3833 
  98   0.0000       9.899656       269.3833 
  99   0.0000       9.899657       269.3834 
 100   0.0000      26.118196       710.7123 
 101   0.0000     167.881033      4568.2751 
 102   0.0000     216.839144      5900.4931 
 103   0.0000     216.839145      5900.4931 
 104   0.0000     216.839145      5900.4931 
 105   0.0000     722.362478     19656.4823 
 106   0.0000    2454.697789     66795.7227 
 107   0.0000    8072.074196    219652.3058 
 108   0.0000   28474.209440    774822.6301 
 109   0.0000   117241.194485   3190295.0934 
 110   0.0000   597781.406801   16266459.0499 
 111   0.0000   2211675.163716   60182740.8361 
 112   0.0000   6563629.861518   178605448.6575 
 113   0.0000   18768449.586273   510715477.5157 

                    ********************************
                    * MULLIKEN POPULATION ANALYSIS *
                    ********************************

--------------------------------------------
MULLIKEN ATOMIC CHARGES AND SPIN POPULATIONS
--------------------------------------------
   0 Fe:    0.661243    4.359199
   1 F :   -0.610199    0.106808
   2 F :   -0.610218    0.106790
   3 F :   -0.610202    0.106805
   4 F :   -0.610212    0.106796
   5 F :   -0.610206    0.106801
   6 F :   -0.610206    0.106801
Sum of atomic charges         :   -3.0000000
Sum of atomic spin populations:    5.0000000

-----------------------------------------------------
MULLIKEN REDUCED ORBITAL CHARGES AND SPIN POPULATIONS
-----------------------------------------------------
CHARGE
  0 Fes       :     6.429472  s :     6.429472
      pz      :     4.387054  p :    13.161164
      px      :     4.387055
      py      :     4.387055
      dz2     :     1.232705  d :     5.747768
      dxz     :     1.094120
      dyz     :     1.094120
      dx2y2   :     1.232704
      dxy     :     1.094119
      f0      :     0.000092  f :     0.000353
      f+1     :     0.000050
      f-1     :     0.000050
      f+2     :     0.000025
      f-2     :     0.000000
      f+3     :     0.000067
      f-3     :     0.000067
  1 F s       :     3.966992  s :     3.966992
      pz      :     1.930944  p :     5.643207
      px      :     1.781319
      py      :     1.930944
  2 F s       :     3.966993  s :     3.966993
      pz      :     1.930950  p :     5.643225
      px      :     1.781326
      py      :     1.930950
  3 F s       :     3.966992  s :     3.966992
      pz      :     1.930945  p :     5.643210
      px      :     1.930945
      py      :     1.781320
  4 F s       :     3.966993  s :     3.966993
      pz      :     1.930948  p :     5.643219
      px      :     1.930947
      py      :     1.781324
  5 F s       :     3.966992  s :     3.966992
      pz      :     1.781322  p :     5.643213
      px      :     1.930946
      py      :     1.930946
  6 F s       :     3.966992  s :     3.966992
      pz      :     1.781322  p :     5.643213
      px      :     1.930946
      py      :     1.930946

SPIN
  0 Fes       :     0.006968  s :     0.006968
      pz      :    -0.009010  p :    -0.027029
      px      :    -0.009010
      py      :    -0.009010
      dz2     :     0.804953  d :     4.379261
      dxz     :     0.923118
      dyz     :     0.923118
      dx2y2   :     0.804953
      dxy     :     0.923119
      f0      :    -0.000000  f :    -0.000001
      f+1     :    -0.000000
      f-1     :    -0.000000
      f+2     :     0.000000
      f-2     :     0.000000
      f+3     :    -0.000000
      f-3     :    -0.000000
  1 F s       :     0.001849  s :     0.001849
      pz      :     0.020394  p :     0.104960
      px      :     0.064171
      py      :     0.020394
  2 F s       :     0.001848  s :     0.001848
      pz      :     0.020389  p :     0.104942
      px      :     0.064163
      py      :     0.020390
  3 F s       :     0.001849  s :     0.001849
      pz      :     0.020394  p :     0.104956
      px      :     0.020394
      py      :     0.064169
  4 F s       :     0.001848  s :     0.001848
      pz      :     0.020391  p :     0.104947
      px      :     0.020391
      py      :     0.064165
  5 F s       :     0.001848  s :     0.001848
      pz      :     0.064167  p :     0.104953
      px      :     0.020393
      py      :     0.020393
  6 F s       :     0.001848  s :     0.001848
      pz      :     0.064167  p :     0.104953
      px      :     0.020393
      py      :     0.020393


                     *******************************
                     * LOEWDIN POPULATION ANALYSIS *
                     *******************************

-------------------------------------------
LOEWDIN ATOMIC CHARGES AND SPIN POPULATIONS
-------------------------------------------
   0 Fe:    0.051392    4.345668
   1 F :   -0.508548    0.109064
   2 F :   -0.508589    0.109045
   3 F :   -0.508555    0.109060
   4 F :   -0.508576    0.109051
   5 F :   -0.508563    0.109056
   6 F :   -0.508563    0.109056

----------------------------------------------------
LOEWDIN REDUCED ORBITAL CHARGES AND SPIN POPULATIONS
----------------------------------------------------
CHARGE
  0 Fes       :     6.466991  s :     6.466991
      pz      :     4.512957  p :    13.538868
      px      :     4.512955
      py      :     4.512956
      dz2     :     1.312462  d :     5.942257
      dxz     :     1.105778
      dyz     :     1.105779
      dx2y2   :     1.312460
      dxy     :     1.105777
      f0      :     0.000132  f :     0.000492
      f+1     :     0.000070
      f-1     :     0.000070
      f+2     :     0.000032
      f-2     :     0.000000
      f+3     :     0.000094
      f-3     :     0.000094
  1 F s       :     3.857574  s :     3.857574
      pz      :     1.926700  p :     5.650974
      px      :     1.797575
      py      :     1.926700
  2 F s       :     3.857592  s :     3.857592
      pz      :     1.926707  p :     5.650997
      px      :     1.797582
      py      :     1.926707
  3 F s       :     3.857577  s :     3.857577
      pz      :     1.926701  p :     5.650978
      px      :     1.926701
      py      :     1.797577
  4 F s       :     3.857586  s :     3.857586
      pz      :     1.926705  p :     5.650989
      px      :     1.926704
      py      :     1.797580
  5 F s       :     3.857580  s :     3.857580
      pz      :     1.797578  p :     5.650982
      px      :     1.926702
      py      :     1.926702
  6 F s       :     3.857580  s :     3.857580
      pz      :     1.797578  p :     5.650982
      px      :     1.926702
      py      :     1.926702

SPIN
  0 Fes       :     0.003135  s :     0.003135
      pz      :    -0.007342  p :    -0.022027
      px      :    -0.007342
      py      :    -0.007342
      dz2     :     0.801094  d :     4.364563
      dxz     :     0.920791
      dyz     :     0.920791
      dx2y2   :     0.801095
      dxy     :     0.920792
      f0      :    -0.000001  f :    -0.000003
      f+1     :    -0.000000
      f-1     :    -0.000000
      f+2     :    -0.000000
      f-2     :     0.000000
      f+3     :    -0.000001
      f-3     :    -0.000001
  1 F s       :     0.003213  s :     0.003213
      pz      :     0.020890  p :     0.105851
      px      :     0.064070
      py      :     0.020890
  2 F s       :     0.003212  s :     0.003212
      pz      :     0.020885  p :     0.105833
      px      :     0.064062
      py      :     0.020885
  3 F s       :     0.003213  s :     0.003213
      pz      :     0.020890  p :     0.105847
      px      :     0.020889
      py      :     0.064068
  4 F s       :     0.003213  s :     0.003213
      pz      :     0.020887  p :     0.105838
      px      :     0.020887
      py      :     0.064064
  5 F s       :     0.003213  s :     0.003213
      pz      :     0.064066  p :     0.105843
      px      :     0.020889
      py      :     0.020889
  6 F s       :     0.003213  s :     0.003213
      pz      :     0.064066  p :     0.105843
      px      :     0.020889
      py      :     0.020889


                      *****************************
                      * MAYER POPULATION ANALYSIS *
                      *****************************

  NA   - Mulliken gross atomic population
  ZA   - Total nuclear charge
  QA   - Mulliken gross atomic charge
  VA   - Mayer's total valence
  BVA  - Mayer's bonded valence
  FA   - Mayer's free valence

  ATOM       NA         ZA         QA         VA         BVA        FA
  0 Fe    25.3388    26.0000     0.6612     7.9551     4.0259     3.9292
  1 F      9.6102     9.0000    -0.6102     0.6998     0.6939     0.0059
  2 F      9.6102     9.0000    -0.6102     0.6998     0.6938     0.0059
  3 F      9.6102     9.0000    -0.6102     0.6998     0.6939     0.0059
  4 F      9.6102     9.0000    -0.6102     0.6998     0.6938     0.0059
  5 F      9.6102     9.0000    -0.6102     0.6998     0.6938     0.0059
  6 F      9.6102     9.0000    -0.6102     0.6998     0.6938     0.0059

  Mayer bond orders larger than 0.100000
B(  0-Fe,  1-F ) :   0.6710 B(  0-Fe,  2-F ) :   0.6710 B(  0-Fe,  3-F ) :   0.6710 
B(  0-Fe,  4-F ) :   0.6710 B(  0-Fe,  5-F ) :   0.6710 B(  0-Fe,  6-F ) :   0.6710 


-------
TIMINGS
-------

Total SCF time: 0 days 0 hours 0 min 7 sec 

Total time                  ....       7.543 sec
Sum of individual times     ....       7.289 sec  ( 96.6%)

Fock matrix formation       ....       5.682 sec  ( 75.3%)
  XC integration            ....       1.316 sec  ( 23.2% of F)
    Basis function eval.    ....       0.297 sec  ( 22.6% of XC)
    Density eval.           ....       0.227 sec  ( 17.3% of XC)
    XC-Functional eval.     ....       0.195 sec  ( 14.8% of XC)
    XC-Potential eval.      ....       0.236 sec  ( 17.9% of XC)
Diagonalization             ....       0.106 sec  (  1.4%)
Density matrix formation    ....       0.013 sec  (  0.2%)
Population analysis         ....       0.006 sec  (  0.1%)
Initial guess               ....       0.137 sec  (  1.8%)
Orbital Transformation      ....       0.000 sec  (  0.0%)
Orbital Orthonormalization  ....       0.000 sec  (  0.0%)
DIIS solution               ....       0.035 sec  (  0.5%)
Grid generation             ....       1.310 sec  ( 17.4%)

-------------------------   --------------------
FINAL SINGLE POINT ENERGY     -1862.269295445139
-------------------------   --------------------


                            ***************************************
                            *     ORCA property calculations      *
                            ***************************************

                                    ---------------------
                                    Active property flags
                                    ---------------------
   (+) Dipole Moment
   (+) Nuclear properties (Hyperfine,Quadrupole)


------------------------------------------------------------------------------
                       ORCA ELECTRIC PROPERTIES CALCULATION
------------------------------------------------------------------------------

Dipole Moment Calculation                       ... on
Quadrupole Moment Calculation                   ... off
Polarizability Calculation                      ... off
GBWName                                         ... fe3f6.gbw
Electron density file                           ... fe3f6.scfp
The origin for moment calculation is the CENTER OF MASS  = ( 0.000004,  0.000002  0.000000)

-------------
DIPOLE MOMENT
-------------
                                X             Y             Z
Electronic contribution:      0.00012       0.00006      -0.00000
Nuclear contribution   :     -0.00001      -0.00000       0.00000
                        -----------------------------------------
Total Dipole Moment    :      0.00012       0.00006      -0.00000
                        -----------------------------------------
Magnitude (a.u.)       :      0.00013
Magnitude (Debye)      :      0.00033



--------------------
Rotational spectrum 
--------------------
 
Rotational constants in cm-1:     0.056715     0.056714     0.056714 
Rotational constants in MHz :  1700.263074  1700.254657  1700.246200 

 Dipole components along the rotational axes: 
x,y,z [a.u.] :     0.000105    -0.000053     0.000053 
x,y,z [Debye]:     0.000267    -0.000135     0.000136 

 


           ************************************************************
           *        Program running with 16 parallel MPI-processes    *
           *              working on a common directory               *
           ************************************************************
------------------------------------------------------------------------------
                                ORCA EPR/NMR CALCULATION
------------------------------------------------------------------------------

GBWName                      ... fe3f6.gbw
Electron density file        ... fe3f6.scfp
Spin density file            ... fe3f6.scfr
Multiplicity                 ... 6
g-tensor                     ... 0
NMR chemical shifts          ... 0
Number of nuclei for epr/nmr ... 1
   Nucleus:   0Fe
       Hyperfine : Isotope=   57 I=   0.500 P=  17.280
       Quadrupole: Isotope=   57 I=   0.500 Q=   0.160
       Spin-Orbit: Zeff=  13.910
       Ncuelar Spin-Spin: Gn=   0.000
       rho(0)=Y f(grad)=Y a(iso)=N a(dip)=N a(orb)=N sigma(nmr)=N spin-spin(nmr)=all-N,DSO-N,PSO-N,FC-N,SD-N

-----------------------------------------
ELECTRIC AND MAGNETIC HYPERFINE STRUCTURE
-----------------------------------------

 -----------------------------------------------------------
 Nucleus   0Fe: A:ISTP=   57 I=  0.5 P= 17.2798 MHz/au**3
                Q:ISTP=   57 I=  0.5 Q=  0.1600 barn     
 -----------------------------------------------------------
 Raw EFG matrix (all values in a.u.**-3):
             0.0000      -0.0000       0.0000
            -0.0000       0.0000       0.0000
             0.0000       0.0000      -0.0000

 V(El)       0.0000       0.0000      -0.0000
 V(Nuc)     -0.0000      -0.0000       0.0000
         ----------   ----------   ----------
 V(Tot)      0.0000       0.0000      -0.0000 
 Orientation: 
  X      -0.0094774    0.9805562    0.1960094
  Y       0.9996923    0.0047977    0.0243356
  Z       0.0229221    0.1961797   -0.9803000

Note: Tensor is right-handed

Moessbauer quadrupole splitting parameter (proper coordinate system)
 e**2qQ  =   -0.001 MHz =   -0.000 mm/s
 eta     =  0.998
 Delta-EQ=(1/2{e**2qQ}*sqrt(1+1/3*eta**2) =   -0.001 MHz =   -0.000 mm/s
 RHO(0)=  11816.331598801 a.u.**-3


------------------------------------------------------------------------------- 

Timings for individual modules:

Sum of individual times         ...        8.762 sec (=   0.146 min)
GTO integral calculation        ...        0.582 sec (=   0.010 min)   6.6 %
SCF iterations                  ...        7.788 sec (=   0.130 min)  88.9 %
EPR/NMR calculation             ...        0.392 sec (=   0.007 min)   4.5 %
                             ****ORCA TERMINATED NORMALLY****
TOTAL RUN TIME: 0 days 0 hours 0 minutes 9 seconds 144 msec
