
                                 *****************
                                 * O   R   C   A *
                                 *****************

           --- An Ab Initio, DFT and Semiempirical electronic structure package ---

                  #######################################################
                  #                        -***-                        #
                  #          Department of theory and spectroscopy      #
                  #               Directorship: Frank Neese             #
                  #        Max Planck Institute fuer Kohlenforschung    #
                  #                Kaiser Wilhelm Platz 1               #
                  #                 D-45470 Muelheim/Ruhr               #
                  #                      Germany                        #
                  #                                                     #
                  #                  All rights reserved                #
                  #                        -***-                        #
                  #######################################################


                         Program Version 4.2.1 -  RELEASE  -


 With contributions from (in alphabetic order):
   Daniel Aravena         : Magnetic Suceptibility
   Michael Atanasov       : Ab Initio Ligand Field Theory (pilot matlab implementation)
   Alexander A. Auer      : GIAO ZORA, VPT2
   Ute Becker             : Parallelization
   Giovanni Bistoni       : ED, misc. LED, open-shell LED, HFLD
   Martin Brehm           : Molecular dynamics
   Dmytro Bykov           : SCF Hessian
   Vijay G. Chilkuri      : MRCI spin determinant printing, contributions to CSF-ICE
   Dipayan Datta          : RHF DLPNO-CCSD density
   Achintya Kumar Dutta   : EOM-CC, STEOM-CC
   Dmitry Ganyushin       : Spin-Orbit,Spin-Spin,Magnetic field MRCI
   Miquel Garcia          : C-PCM Hessian, Gaussian charge scheme
   Yang Guo               : DLPNO-NEVPT2, CIM, IAO-localization
   Andreas Hansen         : Spin unrestricted coupled pair/coupled cluster methods
   Benjamin Helmich-Paris : CASSCF linear response (MC-RPA)
   Lee Huntington         : MR-EOM, pCC
   Robert Izsak           : Overlap fitted RIJCOSX, COSX-SCS-MP3, EOM
   Christian Kollmar      : KDIIS, OOCD, Brueckner-CCSD(T), CCSD density
   Simone Kossmann        : Meta GGA functionals, TD-DFT gradient, OOMP2, MP2 Hessian
   Martin Krupicka        : AUTO-CI
   Lucas Lang             : DCDCAS
   Dagmar Lenk            : GEPOL surface, SMD
   Dimitrios Liakos       : Extrapolation schemes; Compound Job, initial MDCI parallelization
   Dimitrios Manganas     : Further ROCIS development; embedding schemes
   Dimitrios Pantazis     : SARC Basis sets
   Taras Petrenko         : DFT Hessian,TD-DFT gradient, ASA, ECA, R-Raman, ABS, FL, XAS/XES, NRVS
   Peter Pinski           : DLPNO-MP2, DLPNO-MP2 Gradient
   Christoph Reimann      : Effective Core Potentials
   Marius Retegan         : Local ZFS, SOC
   Christoph Riplinger    : Optimizer, TS searches, QM/MM, DLPNO-CCSD(T), (RO)-DLPNO pert. Triples
   Tobias Risthaus        : Range-separated hybrids, TD-DFT gradient, RPA, STAB
   Michael Roemelt        : Original ROCIS implementation
   Masaaki Saitow         : Open-shell DLPNO-CCSD energy and density
   Barbara Sandhoefer     : DKH picture change effects
   Avijit Sen             : IP-ROCIS
   Kantharuban Sivalingam : CASSCF convergence, NEVPT2, FIC-MRCI
   Bernardo de Souza      : ESD, SOC TD-DFT
   Georgi Stoychev        : AutoAux, RI-MP2 NMR
   Willem Van den Heuvel  : Paramagnetic NMR
   Boris Wezisla          : Elementary symmetry handling
   Frank Wennmohs         : Technical directorship


 We gratefully acknowledge several colleagues who have allowed us to
 interface, adapt or use parts of their codes:
   Stefan Grimme, W. Hujo, H. Kruse,             : VdW corrections, initial TS optimization,
                  C. Bannwarth                     DFT functionals, gCP, sTDA/sTD-DF
   Ed Valeev, F. Pavosevic, A. Kumar             : LibInt (2-el integral package), F12 methods
   Garnet Chan, S. Sharma, J. Yang, R. Olivares  : DMRG
   Ulf Ekstrom                                   : XCFun DFT Library
   Mihaly Kallay                                 : mrcc  (arbitrary order and MRCC methods)
   Andreas Klamt, Michael Diedenhofen            : otool_cosmo (COSMO solvation model)
   Jiri Pittner, Ondrej Demel                    : Mk-CCSD
   Frank Weinhold                                : gennbo (NPA and NBO analysis)
   Christopher J. Cramer and Donald G. Truhlar   : smd solvation model
   Lars Goerigk                                  : TD-DFT with DH, B97 family of functionals
   V. Asgeirsson, H. Jonsson                     : NEB implementation
   FAccTs GmbH                                   : IRC, NEB, NEB-TS, Multilevel, MM, QM/MM, CI optimization
   S Lehtola, MJT Oliveira, MAL Marques          : LibXC Library


 Your calculation uses the libint2 library for the computation of 2-el integrals
 For citations please refer to: http://libint.valeyev.net

 Your ORCA version has been built with support for libXC version: 4.2.3
 For citations please refer to: https://tddft.org/programs/libxc/

 This ORCA versions uses:
   CBLAS   interface :  Fast vector & matrix operations
   LAPACKE interface :  Fast linear algebra routines
   SCALAPACK package :  Parallel linear algebra routines


----- Orbital basis set information -----
Your calculation utilizes the basis: 6-31G
   H-He, Li-Ne : W. J. Hehre, R. Ditchfield and J.A. Pople, J. Chem. Phys. 56, 2257 (1972).
                 Note: He and Ne are unpublished basis sets taken from the Gaussian program.
                 Note: Li and B from J. D. Dill and J. A. Pople, J. Chem. Phys. 62, 2921 (1975).
   Na - Ar     : M. M. Francl, W. J. Pietro, W. J. Hehre, J. S. Binkley, M. S. Gordon, 
                 D. J. DeFrees and J. A. Pople, J. Chem. Phys. 77, 3654 (1982).
   K - Zn      : V. A. Rassolov, J. A. Pople, M. A. Ratner, and T. L. Windus, J. Chem. Phys. 109, 1223 (1998).

================================================================================
                                        WARNINGS
                       Please study these warnings very carefully!
================================================================================


WARNING: your system is open-shell and RHF/RKS was chosen
  ===> : WILL SWITCH to UHF/UKS


INFO   : the flag for use of LIBINT has been found!

================================================================================
                                       INPUT FILE
================================================================================
NAME = fe3cl4.inp
|  1> ! DFT B3LYP 6-31g TightSCF Grid5 NoFinalGrid SlowConv
|  2> %pal
|  3> nprocs 16
|  4> end
|  5> %method SpecialGridAtoms 26
|  6> SpecialGridIntAcc 7
|  7> end
|  8> %basis NewGTO 26 "CP(PPP)" end
|  9> end
| 10> # [Fe(lll)(Cl)4]1-  s = 5/2
| 11> * xyz -1 6
| 12> Fe  0.002291  0.001525 -0.000013
| 13> Cl  2.234628 -0.003950  0.000015
| 14> Cl -0.749004  2.103068  0.000006
| 15> Cl -0.743967 -1.050327 -1.821818
| 16> Cl -0.743948 -1.050316  1.821811
| 17> *
| 18> # Note that the EPR block needs to below the coordinate block for 
| 19> # the “all Fe” command (all irons) to be recognized. 
| 20> %eprnmr nuclei = all Fe {rho, fgrad}
| 21> end
| 22> 
| 23>                          ****END OF INPUT****
================================================================================

                       ****************************
                       * Single Point Calculation *
                       ****************************

---------------------------------
CARTESIAN COORDINATES (ANGSTROEM)
---------------------------------
  Fe     0.002291    0.001525   -0.000013
  Cl     2.234628   -0.003950    0.000015
  Cl    -0.749004    2.103068    0.000006
  Cl    -0.743967   -1.050327   -1.821818
  Cl    -0.743948   -1.050316    1.821811

----------------------------
CARTESIAN COORDINATES (A.U.)
----------------------------
  NO LB      ZA    FRAG     MASS         X           Y           Z
   0 Fe   26.0000    0    55.850    0.004329    0.002882   -0.000025
   1 Cl   17.0000    0    35.453    4.222835   -0.007464    0.000028
   2 Cl   17.0000    0    35.453   -1.415412    3.974223    0.000011
   3 Cl   17.0000    0    35.453   -1.405894   -1.984830   -3.442737
   4 Cl   17.0000    0    35.453   -1.405858   -1.984810    3.442724

--------------------------------
INTERNAL COORDINATES (ANGSTROEM)
--------------------------------
 Fe     0   0   0     0.000000000000     0.00000000     0.00000000
 Cl     1   0   0     2.232343714122     0.00000000     0.00000000
 Cl     1   2   0     2.231799085544   109.81233247     0.00000000
 Cl     1   2   3     2.232099256416   109.46212112   120.04474577
 Cl     1   2   3     2.232103228208   109.46032437   239.95758255

---------------------------
INTERNAL COORDINATES (A.U.)
---------------------------
 Fe     0   0   0     0.000000000000     0.00000000     0.00000000
 Cl     1   0   0     4.218518256470     0.00000000     0.00000000
 Cl     1   2   0     4.217489057614   109.81233247     0.00000000
 Cl     1   2   3     4.218056298356   109.46212112   120.04474577
 Cl     1   2   3     4.218063803955   109.46032437   239.95758255

---------------------
BASIS SET INFORMATION
---------------------
There are 2 groups of distinct atoms

 Group   1 Type Fe  : 17s11p5d1f contracted to 17s7p3d1f pattern {11111111111111111/3311111/311/1}
 Group   2 Type Cl  : 16s10p contracted to 4s3p pattern {6631/631}

Atom   0Fe   basis set group =>   1
Atom   1Cl   basis set group =>   2
Atom   2Cl   basis set group =>   2
Atom   3Cl   basis set group =>   2
Atom   4Cl   basis set group =>   2


           ************************************************************
           *        Program running with 16 parallel MPI-processes    *
           *              working on a common directory               *
           ************************************************************
------------------------------------------------------------------------------
                           ORCA GTO INTEGRAL CALCULATION
------------------------------------------------------------------------------

                         BASIS SET STATISTICS AND STARTUP INFO

 # of primitive gaussian shells          ...  138
 # of primitive gaussian functions       ...  266
 # of contracted shells                  ...   56
 # of contracted basis functions         ...  112
 Highest angular momentum                ...    3
 Maximum contraction depth               ...    6
 Integral package used                   ... LIBINT
 Integral threshhold            Thresh   ...  2.500e-11
 Primitive cut-off              TCut     ...  2.500e-12


------------------------------ INTEGRAL EVALUATION ----------------------------


 * One electron integrals 
 Pre-screening matrix                    ... done
 Shell pair data                         ... done (   0.001 sec)



           ************************************************************
           *        Program running with 16 parallel MPI-processes    *
           *              working on a common directory               *
           ************************************************************
-------------------------------------------------------------------------------
                                 ORCA SCF
-------------------------------------------------------------------------------

------------
SCF SETTINGS
------------
Hamiltonian:
 Density Functional     Method          .... DFT(GTOs)
 Exchange Functional    Exchange        .... B88
   X-Alpha parameter    XAlpha          ....  0.666667
   Becke's b parameter  XBeta           ....  0.004200
 Correlation Functional Correlation     .... LYP
 LDA part of GGA corr.  LDAOpt          .... VWN-5
 Gradients option       PostSCFGGA      .... off
 Hybrid DFT is turned on
   Fraction HF Exchange ScalHFX         ....  0.200000
   Scaling of DF-GGA-X  ScalDFX         ....  0.720000
   Scaling of DF-GGA-C  ScalDFC         ....  0.810000
   Scaling of DF-LDA-C  ScalLDAC        ....  1.000000
   Perturbative correction              ....  0.000000
   Density functional embedding theory  .... OFF
   NL short-range parameter             ....  4.800000


General Settings:
 Integral files         IntName         .... fe3cl4
 Hartree-Fock type      HFTyp           .... UHF
 Total Charge           Charge          ....   -1
 Multiplicity           Mult            ....    6
 Number of Electrons    NEL             ....   95
 Basis Dimension        Dim             ....  112
 Nuclear Repulsion      ENuc            ....    670.8950450516 Eh

Convergence Acceleration:
 DIIS                   CNVDIIS         .... on
   Start iteration      DIISMaxIt       ....     0
   Startup error        DIISStart       ....  0.200000
   # of expansion vecs  DIISMaxEq       ....     5
   Bias factor          DIISBfac        ....   1.050
   Max. coefficient     DIISMaxC        ....  10.000
 Newton-Raphson         CNVNR           .... off
 SOSCF                  CNVSOSCF        .... off
 Level Shifting         CNVShift        .... on
   Level shift para.    LevelShift      ....    0.2500
   Turn off err/grad.   ShiftErr        ....    0.0000
 Zerner damping         CNVZerner       .... off
 Static damping         CNVDamp         .... on
   Fraction old density DampFac         ....    0.8500
   Max. Damping (<1)    DampMax         ....    0.9800
   Min. Damping (>=0)   DampMin         ....    0.0000
   Turn off err/grad.   DampErr         ....    0.0300
 Fernandez-Rico         CNVRico         .... off

SCF Procedure:
 Maximum # iterations   MaxIter         ....   125
 SCF integral mode      SCFMode         .... Direct
   Integral package                     .... LIBINT
 Reset frequency        DirectResetFreq ....    20
 Integral Threshold     Thresh          ....  2.500e-11 Eh
 Primitive CutOff       TCut            ....  2.500e-12 Eh

Convergence Tolerance:
 Convergence Check Mode ConvCheckMode   .... Total+1el-Energy
 Convergence forced     ConvForced      .... 0
 Energy Change          TolE            ....  1.000e-08 Eh
 1-El. energy change                    ....  1.000e-05 Eh
 DIIS Error             TolErr          ....  5.000e-07


Diagonalization of the overlap matrix:
Smallest eigenvalue                        ... 6.269e-03
Time for diagonalization                   ...    0.003 sec
Threshold for overlap eigenvalues          ... 1.000e-08
Number of eigenvalues below threshold      ... 0
Time for construction of square roots      ...    0.003 sec
Total time needed                          ...    0.007 sec

-------------------
DFT GRID GENERATION
-------------------

General Integration Accuracy     IntAcc      ...  5.010
Radial Grid Type                 RadialGrid  ... Gauss-Chebyshev
Angular Grid (max. acc.)         AngularGrid ... Lebedev-434
Angular grid pruning method      GridPruning ... 3 (G Style)
Weight generation scheme         WeightScheme... Becke
Basis function cutoff            BFCut       ...    1.0000e-11
Integration weight cutoff        WCut        ...    1.0000e-14
Grids for H and He will be reduced by one unit

SpecialGrid => Setting IntAcc for atom type =  26 to   7.0000
# of grid points (after initial pruning)     ...  72102 (   0.0 sec)
# of grid points (after weights+screening)   ...  71025 (   0.0 sec)
nearest neighbour list constructed           ...    0.0 sec
Grid point re-assignment to atoms done       ...    0.0 sec
Grid point division into batches done        ...    0.9 sec
Reduced shell lists constructed in    1.0 sec

Total number of grid points                  ...    71025
Total number of batches                      ...     1113
Average number of points per batch           ...       63
Average number of grid points per atom       ...    14205
Average number of shells per batch           ...    32.25 (57.60%)
Average number of basis functions per batch  ...    78.96 (70.50%)
Average number of large shells per batch     ...    28.01 (86.86%)
Average number of large basis fcns per batch ...    69.56 (88.10%)
Maximum spatial batch extension              ...   2.64,  2.37,  2.12 au
Average spatial batch extension              ...   0.08,  0.08,  0.09 au

Time for grid setup =    1.114 sec

------------------------------
INITIAL GUESS: MODEL POTENTIAL
------------------------------
Loading Hartree-Fock densities                     ... done
Calculating cut-offs                               ... done
Setting up the integral package                    ... done
Initializing the effective Hamiltonian             ... done
Starting the Coulomb interaction                   ... done (   0.0 sec)
Reading the grid                                   ... done
Mapping shells                                     ... done
Starting the XC term evaluation                    ... done (   0.0 sec)
  promolecular density results
     # of electrons  =     94.000021911
     EX              =   -164.491632666
     EC              =     -4.033260907
     EX+EC           =   -168.524893573
Transforming the Hamiltonian                       ... done (   0.0 sec)
Diagonalizing the Hamiltonian                      ... done (   0.0 sec)
Back transforming the eigenvectors                 ... done (   0.0 sec)
Now organizing SCF variables                       ... done
                      ------------------
                      INITIAL GUESS DONE (   1.2 sec)
                      ------------------
--------------
SCF ITERATIONS
--------------
ITER       Energy         Delta-E        Max-DP      RMS-DP      [F,P]     Damp
               ***  Starting incremental Fock matrix formation  ***
  0  -3104.3553554010   0.000000000000 0.01794609  0.00068260  0.5044700 0.8500
  1  -3104.3836276027  -0.028272201640 0.01539364  0.00059440  0.4293991 0.8500
                               ***Turning on DIIS***
  2  -3104.3935941803  -0.009966577657 0.00996319  0.00039900  0.3652539 0.8500
  3  -3104.4009672419  -0.007373061539 0.00551645  0.00024966  0.3104907 0.8500
  4  -3104.4089990350  -0.008031793158 0.00303306  0.00017545  0.2637871 0.8500
  5  -3104.4154998718  -0.006500836824 0.00486244  0.00015883  0.2243223 0.8500
  6  -3104.4208435413  -0.005343669497 0.00520098  0.00014228  0.1907596 0.8500
  7  -3104.4254564022  -0.004612860835 0.00491411  0.00013145  0.1621512 0.8500
  8  -3104.4294433508  -0.003986948600 0.00340869  0.00011049  0.1378116 0.8500
  9  -3104.4329096769  -0.003466326129 0.00324941  0.00009661  0.1170966 0.8500
 10  -3104.4358335341  -0.002923857250 0.00346880  0.00008615  0.0995398 0.8500
 11  -3104.4382994859  -0.002465951713 0.00306651  0.00007317  0.0846356 0.8500
 12  -3104.4404075237  -0.002108037863 0.00241749  0.00006097  0.0719465 0.8500
 13  -3104.4422184418  -0.001810918034 0.00195652  0.00005194  0.0611460 0.8500
 14  -3104.4437639364  -0.001545494690 0.00183803  0.00004563  0.0519660 0.8500
 15  -3104.4450769709  -0.001313034427 0.00172871  0.00003991  0.0441745 0.8500
 16  -3104.4461932490  -0.001116278119 0.00144329  0.00003350  0.0375548 0.8500
 17  -3104.4471458417  -0.000952592715 0.00114499  0.00002795  0.0319218 0.8500
 18  -3104.4479586440  -0.000812802313 0.00652311  0.00015989  0.0271303 0.0000
 19  -3104.4525887669  -0.004630122892 0.00129967  0.00002426  0.0010321 0.0000
               *** Restarting incremental Fock matrix formation ***
                                   *** Resetting DIIS ***
 20  -3104.4525812781   0.000007488850 0.00187230  0.00004332  0.0021365 0.0000
 21  -3104.4525480069   0.000033271139 0.00081281  0.00001840  0.0045095 0.0000
 22  -3104.4525845884  -0.000036581515 0.00061918  0.00001135  0.0014587 0.0000
 23  -3104.4525912083  -0.000006619893 0.00009977  0.00000287  0.0002911 0.0000
 24  -3104.4525916156  -0.000000407282 0.00006159  0.00000122  0.0000246 0.0000
 25  -3104.4525916413  -0.000000025725 0.00005825  0.00000085  0.0000146 0.0000
 26  -3104.4525916475  -0.000000006201 0.00002566  0.00000040  0.0000073 0.0000
 27  -3104.4525916498  -0.000000002238 0.00001044  0.00000018  0.0000079 0.0000
 28  -3104.4525916494   0.000000000342 0.00000246  0.00000010  0.0000052 0.0000
                 **** Energy Check signals convergence ****

               *****************************************************
               *                     SUCCESS                       *
               *           SCF CONVERGED AFTER  29 CYCLES          *
               *****************************************************


----------------
TOTAL SCF ENERGY
----------------

Total Energy       :        -3104.45259165 Eh          -84476.44972 eV

Components:
Nuclear Repulsion  :          670.89504505 Eh           18255.98229 eV
Electronic Energy  :        -3775.34763670 Eh         -102732.43201 eV
One Electron Energy:        -5642.08965810 Eh         -153529.06486 eV
Two Electron Energy:         1866.74202140 Eh           50796.63285 eV

Virial components:
Potential Energy   :        -6204.43290589 Eh         -168831.20258 eV
Kinetic Energy     :         3099.98031424 Eh           84354.75286 eV
Virial Ratio       :            2.00144268


DFT components:
N(Alpha)           :       50.000006406163 electrons
N(Beta)            :       45.000006777364 electrons
N(Total)           :       95.000013183527 electrons
E(X)               :     -131.037280077630 Eh       
E(C)               :       -4.721076596131 Eh       
E(XC)              :     -135.758356673761 Eh       
DFET-embed. en.    :        0.000000000000 Eh       

---------------
SCF CONVERGENCE
---------------

  Last Energy change         ...    1.3461e-10  Tolerance :   1.0000e-08
  Last MAX-Density change    ...    2.0637e-06  Tolerance :   1.0000e-07
  Last RMS-Density change    ...    6.8744e-08  Tolerance :   5.0000e-09
  Last DIIS Error            ...    2.1516e-06  Tolerance :   5.0000e-07

             **** THE GBW FILE WAS UPDATED (fe3cl4.gbw) ****
             **** DENSITY FILE WAS UPDATED (fe3cl4.scfp) ****
             **** ENERGY FILE WAS UPDATED (fe3cl4.en.tmp) ****
----------------------
UHF SPIN CONTAMINATION
----------------------

Warning: in a DFT calculation there is little theoretical justification to 
         calculate <S**2> as in Hartree-Fock theory. We will do it anyways
         but you should keep in mind that the values have only limited relevance

Expectation value of <S**2>     :     8.757222
Ideal value S*(S+1) for S=2.5   :     8.750000
Deviation                       :     0.007222

             **** THE GBW FILE WAS UPDATED (fe3cl4.gbw) ****
             **** DENSITY FILE WAS UPDATED (fe3cl4.scfp) ****
----------------
ORBITAL ENERGIES
----------------
                 SPIN UP ORBITALS
  NO   OCC          E(Eh)            E(eV) 
   0   1.0000    -256.044783     -6967.3327 
   1   1.0000    -101.353987     -2757.9822 
   2   1.0000    -101.353965     -2757.9816 
   3   1.0000    -101.353856     -2757.9786 
   4   1.0000    -101.353848     -2757.9784 
   5   1.0000     -30.036858      -817.3444 
   6   1.0000     -25.891016      -704.5304 
   7   1.0000     -25.891000      -704.5299 
   8   1.0000     -25.890986      -704.5296 
   9   1.0000      -9.287364      -252.7220 
  10   1.0000      -9.287335      -252.7212 
  11   1.0000      -9.287234      -252.7185 
  12   1.0000      -9.287215      -252.7180 
  13   1.0000      -7.046979      -191.7580 
  14   1.0000      -7.046958      -191.7575 
  15   1.0000      -7.046861      -191.7548 
  16   1.0000      -7.046837      -191.7542 
  17   1.0000      -7.042833      -191.6452 
  18   1.0000      -7.042833      -191.6452 
  19   1.0000      -7.042818      -191.6448 
  20   1.0000      -7.042812      -191.6446 
  21   1.0000      -7.042712      -191.6419 
  22   1.0000      -7.042706      -191.6418 
  23   1.0000      -7.042690      -191.6413 
  24   1.0000      -7.042688      -191.6413 
  25   1.0000      -3.529671       -96.0472 
  26   1.0000      -2.304967       -62.7213 
  27   1.0000      -2.304938       -62.7205 
  28   1.0000      -2.304927       -62.7203 
  29   1.0000      -0.657768       -17.8988 
  30   1.0000      -0.646965       -17.6048 
  31   1.0000      -0.646865       -17.6021 
  32   1.0000      -0.646830       -17.6011 
  33   1.0000      -0.331362        -9.0168 
  34   1.0000      -0.331338        -9.0162 
  35   1.0000      -0.331327        -9.0159 
  36   1.0000      -0.326772        -8.8919 
  37   1.0000      -0.326759        -8.8916 
  38   1.0000      -0.255460        -6.9514 
  39   1.0000      -0.201433        -5.4813 
  40   1.0000      -0.201298        -5.4776 
  41   1.0000      -0.201243        -5.4761 
  42   1.0000      -0.164554        -4.4778 
  43   1.0000      -0.164494        -4.4761 
  44   1.0000      -0.157386        -4.2827 
  45   1.0000      -0.157275        -4.2797 
  46   1.0000      -0.157234        -4.2786 
  47   1.0000      -0.147759        -4.0207 
  48   1.0000      -0.147623        -4.0170 
  49   1.0000      -0.147546        -4.0149 
  50   0.0000       0.157059         4.2738 
  51   0.0000       0.200950         5.4681 
  52   0.0000       0.200979         5.4689 
  53   0.0000       0.201215         5.4754 
  54   0.0000       0.269385         7.3303 
  55   0.0000       0.346825         9.4376 
  56   0.0000       0.347040         9.4434 
  57   0.0000       0.347622         9.4593 
  58   0.0000       0.556402        15.1405 
  59   0.0000       0.556466        15.1422 
  60   0.0000       0.556634        15.1468 
  61   0.0000       0.567071        15.4308 
  62   0.0000       0.567320        15.4376 
  63   0.0000       0.577183        15.7060 
  64   0.0000       0.678888        18.4735 
  65   0.0000       0.679129        18.4800 
  66   0.0000       0.679257        18.4835 
  67   0.0000       0.746350        20.3092 
  68   0.0000       0.747464        20.3395 
  69   0.0000       0.747558        20.3421 
  70   0.0000       0.775127        21.0923 
  71   0.0000       0.775933        21.1142 
  72   0.0000       0.776393        21.1267 
  73   0.0000       0.889196        24.1963 
  74   0.0000       1.051486        28.6124 
  75   0.0000       1.051532        28.6136 
  76   0.0000       1.185467        32.2582 
  77   0.0000       1.185930        32.2708 
  78   0.0000       1.186039        32.2738 
  79   0.0000       1.788469        48.6667 
  80   0.0000       1.788840        48.6768 
  81   0.0000       1.789700        48.7002 
  82   0.0000       3.208470        87.3069 
  83   0.0000       4.964811       135.0994 
  84   0.0000       4.964910       135.1021 
  85   0.0000       5.075591       138.1138 
  86   0.0000       5.075897       138.1222 
  87   0.0000       5.076033       138.1259 
  88   0.0000       5.971312       162.4877 
  89   0.0000       5.971323       162.4880 
  90   0.0000       5.971374       162.4893 
  91   0.0000       5.972939       162.5319 
  92   0.0000       5.972964       162.5326 
  93   0.0000       5.972969       162.5327 
  94   0.0000       5.978861       162.6931 
  95   0.0000       9.284279       252.6381 
  96   0.0000       9.284543       252.6453 
  97   0.0000       9.285173       252.6624 
  98   0.0000      25.435898       692.1460 
  99   0.0000     167.302523      4552.5331 
 100   0.0000     216.353798      5887.2862 
 101   0.0000     216.353984      5887.2912 
 102   0.0000     216.354439      5887.3036 
 103   0.0000     721.823810     19641.8244 
 104   0.0000    2454.172044     66781.4164 
 105   0.0000    8071.555118    219638.1809 
 106   0.0000   28473.695579    774808.6472 
 107   0.0000   117240.685773   3190281.2506 
 108   0.0000   597780.903727   16266445.3605 
 109   0.0000   2211674.663049   60182727.2123 
 110   0.0000   6563629.362272   178605435.0723 
 111   0.0000   18768449.088403   510715463.9679 

                 SPIN DOWN ORBITALS
  NO   OCC          E(Eh)            E(eV) 
   0   1.0000    -256.044357     -6967.3212 
   1   1.0000    -101.352067     -2757.9299 
   2   1.0000    -101.352040     -2757.9292 
   3   1.0000    -101.351929     -2757.9262 
   4   1.0000    -101.351920     -2757.9260 
   5   1.0000     -29.949360      -814.9635 
   6   1.0000     -25.818836      -702.5663 
   7   1.0000     -25.818826      -702.5660 
   8   1.0000     -25.818817      -702.5657 
   9   1.0000      -9.285539      -252.6724 
  10   1.0000      -9.285508      -252.6715 
  11   1.0000      -9.285403      -252.6687 
  12   1.0000      -9.285384      -252.6681 
  13   1.0000      -7.043856      -191.6731 
  14   1.0000      -7.043829      -191.6723 
  15   1.0000      -7.043721      -191.6694 
  16   1.0000      -7.043697      -191.6687 
  17   1.0000      -7.040344      -191.5775 
  18   1.0000      -7.040343      -191.5775 
  19   1.0000      -7.040325      -191.5770 
  20   1.0000      -7.040321      -191.5769 
  21   1.0000      -7.040218      -191.5741 
  22   1.0000      -7.040212      -191.5739 
  23   1.0000      -7.040195      -191.5735 
  24   1.0000      -7.040194      -191.5734 
  25   1.0000      -3.324079       -90.4528 
  26   1.0000      -2.088126       -56.8208 
  27   1.0000      -2.088114       -56.8205 
  28   1.0000      -2.088100       -56.8201 
  29   1.0000      -0.645471       -17.5642 
  30   1.0000      -0.633570       -17.2403 
  31   1.0000      -0.633444       -17.2369 
  32   1.0000      -0.633395       -17.2356 
  33   1.0000      -0.237562        -6.4644 
  34   1.0000      -0.208826        -5.6825 
  35   1.0000      -0.208792        -5.6815 
  36   1.0000      -0.208740        -5.6801 
  37   1.0000      -0.183813        -5.0018 
  38   1.0000      -0.183674        -4.9980 
  39   1.0000      -0.179575        -4.8865 
  40   1.0000      -0.179462        -4.8834 
  41   1.0000      -0.179456        -4.8832 
  42   1.0000      -0.145202        -3.9511 
  43   1.0000      -0.145094        -3.9482 
  44   1.0000      -0.145044        -3.9469 
  45   0.0000       0.005304         0.1443 
  46   0.0000       0.005363         0.1459 
  47   0.0000       0.014864         0.4045 
  48   0.0000       0.014873         0.4047 
  49   0.0000       0.015001         0.4082 
  50   0.0000       0.162034         4.4092 
  51   0.0000       0.204149         5.5552 
  52   0.0000       0.204180         5.5560 
  53   0.0000       0.204377         5.5614 
  54   0.0000       0.299625         8.1532 
  55   0.0000       0.370581        10.0840 
  56   0.0000       0.370797        10.0899 
  57   0.0000       0.371351        10.1050 
  58   0.0000       0.564432        15.3590 
  59   0.0000       0.564506        15.3610 
  60   0.0000       0.564676        15.3656 
  61   0.0000       0.574070        15.6213 
  62   0.0000       0.574328        15.6282 
  63   0.0000       0.582186        15.8421 
  64   0.0000       0.683405        18.5964 
  65   0.0000       0.683646        18.6029 
  66   0.0000       0.683777        18.6065 
  67   0.0000       0.751217        20.4417 
  68   0.0000       0.752360        20.4728 
  69   0.0000       0.752448        20.4752 
  70   0.0000       0.780069        21.2268 
  71   0.0000       0.780876        21.2487 
  72   0.0000       0.781325        21.2609 
  73   0.0000       0.895933        24.3796 
  74   0.0000       1.130627        30.7659 
  75   0.0000       1.130661        30.7668 
  76   0.0000       1.256334        34.1866 
  77   0.0000       1.256775        34.1986 
  78   0.0000       1.256867        34.2011 
  79   0.0000       1.866788        50.7979 
  80   0.0000       1.867140        50.8074 
  81   0.0000       1.867964        50.8299 
  82   0.0000       3.322040        90.3973 
  83   0.0000       5.109219       139.0289 
  84   0.0000       5.109317       139.0316 
  85   0.0000       5.210231       141.7776 
  86   0.0000       5.210477       141.7843 
  87   0.0000       5.210597       141.7875 
  88   0.0000       6.160805       167.6440 
  89   0.0000       6.161211       167.6551 
  90   0.0000       6.161224       167.6554 
  91   0.0000       6.161242       167.6559 
  92   0.0000       6.164629       167.7481 
  93   0.0000       6.164650       167.7487 
  94   0.0000       6.164678       167.7494 
  95   0.0000       9.419674       256.3223 
  96   0.0000       9.419927       256.3292 
  97   0.0000       9.420555       256.3463 
  98   0.0000      25.559159       695.5001 
  99   0.0000     167.340131      4553.5565 
 100   0.0000     216.368902      5887.6971 
 101   0.0000     216.369086      5887.7022 
 102   0.0000     216.369540      5887.7145 
 103   0.0000     721.832220     19642.0533 
 104   0.0000    2454.173891     66781.4667 
 105   0.0000    8071.555322    219638.1865 
 106   0.0000   28473.695322    774808.6402 
 107   0.0000   117240.685443   3190281.2417 
 108   0.0000   597780.903574   16266445.3564 
 109   0.0000   2211674.663078   60182727.2131 
 110   0.0000   6563629.362556   178605435.0800 
 111   0.0000   18768449.088954   510715463.9829 

                    ********************************
                    * MULLIKEN POPULATION ANALYSIS *
                    ********************************

--------------------------------------------
MULLIKEN ATOMIC CHARGES AND SPIN POPULATIONS
--------------------------------------------
   0 Fe:    0.359710    4.073786
   1 Cl:   -0.340368    0.230952
   2 Cl:   -0.339797    0.231498
   3 Cl:   -0.339772    0.231880
   4 Cl:   -0.339772    0.231884
Sum of atomic charges         :   -1.0000000
Sum of atomic spin populations:    5.0000000

-----------------------------------------------------
MULLIKEN REDUCED ORBITAL CHARGES AND SPIN POPULATIONS
-----------------------------------------------------
CHARGE
  0 Fes       :     6.566317  s :     6.566317
      pz      :     4.333843  p :    13.001810
      px      :     4.334230
      py      :     4.333737
      dz2     :     1.232415  d :     6.072022
      dxz     :     1.182492
      dyz     :     1.222394
      dx2y2   :     1.251953
      dxy     :     1.182768
      f0      :     0.000017  f :     0.000141
      f+1     :     0.000022
      f-1     :     0.000025
      f+2     :     0.000017
      f-2     :     0.000018
      f+3     :     0.000024
      f-3     :     0.000018
  1 Cls       :     5.946791  s :     5.946791
      pz      :     3.888605  p :    11.393577
      px      :     3.616499
      py      :     3.888474
  2 Cls       :     5.946682  s :     5.946682
      pz      :     3.888555  p :    11.393115
      px      :     3.857488
      py      :     3.647072
  3 Cls       :     5.946678  s :     5.946678
      pz      :     3.706987  p :    11.393093
      px      :     3.858044
      py      :     3.828062
  4 Cls       :     5.946679  s :     5.946679
      pz      :     3.706984  p :    11.393094
      px      :     3.858047
      py      :     3.828064

SPIN
  0 Fes       :     0.030348  s :     0.030348
      pz      :     0.015198  p :     0.045427
      px      :     0.015067
      py      :     0.015163
      dz2     :     0.782390  d :     3.998011
      dxz     :     0.830145
      dyz     :     0.791925
      dx2y2   :     0.763663
      dxy     :     0.829888
      f0      :    -0.000000  f :    -0.000001
      f+1     :     0.000000
      f-1     :    -0.000001
      f+2     :    -0.000000
      f-2     :     0.000002
      f+3     :    -0.000001
      f-3     :    -0.000000
  1 Cls       :     0.002221  s :     0.002221
      pz      :     0.063044  p :     0.228732
      px      :     0.102603
      py      :     0.063085
  2 Cls       :     0.002226  s :     0.002226
      pz      :     0.063137  p :     0.229272
      px      :     0.067607
      py      :     0.098528
  3 Cls       :     0.002224  s :     0.002224
      pz      :     0.089996  p :     0.229656
      px      :     0.067600
      py      :     0.072060
  4 Cls       :     0.002224  s :     0.002224
      pz      :     0.089999  p :     0.229660
      px      :     0.067600
      py      :     0.072061


                     *******************************
                     * LOEWDIN POPULATION ANALYSIS *
                     *******************************

-------------------------------------------
LOEWDIN ATOMIC CHARGES AND SPIN POPULATIONS
-------------------------------------------
   0 Fe:   -0.099911    4.063367
   1 Cl:   -0.225359    0.233586
   2 Cl:   -0.224852    0.234107
   3 Cl:   -0.224938    0.234469
   4 Cl:   -0.224940    0.234472

----------------------------------------------------
LOEWDIN REDUCED ORBITAL CHARGES AND SPIN POPULATIONS
----------------------------------------------------
CHARGE
  0 Fes       :     6.507950  s :     6.507950
      pz      :     4.468147  p :    13.404908
      px      :     4.468726
      py      :     4.468035
      dz2     :     1.259319  d :     6.186877
      dxz     :     1.198460
      dyz     :     1.247096
      dx2y2   :     1.283189
      dxy     :     1.198813
      f0      :     0.000021  f :     0.000177
      f+1     :     0.000028
      f-1     :     0.000032
      f+2     :     0.000021
      f-2     :     0.000023
      f+3     :     0.000031
      f-3     :     0.000022
  1 Cls       :     5.819964  s :     5.819964
      pz      :     3.880187  p :    11.405396
      px      :     3.645129
      py      :     3.880080
  2 Cls       :     5.819839  s :     5.819839
      pz      :     3.880099  p :    11.405012
      px      :     3.853253
      py      :     3.671660
  3 Cls       :     5.819924  s :     5.819924
      pz      :     3.723330  p :    11.405015
      px      :     3.853802
      py      :     3.827883
  4 Cls       :     5.819925  s :     5.819925
      pz      :     3.723326  p :    11.405015
      px      :     3.853805
      py      :     3.827884

SPIN
  0 Fes       :     0.011003  s :     0.011003
      pz      :     0.020008  p :     0.059865
      px      :     0.019874
      py      :     0.019982
      dz2     :     0.781024  d :     3.992496
      dxz     :     0.829521
      dyz     :     0.790704
      dx2y2   :     0.761989
      dxy     :     0.829259
      f0      :    -0.000000  f :     0.000002
      f+1     :     0.000001
      f-1     :    -0.000001
      f+2     :    -0.000000
      f-2     :     0.000003
      f+3     :    -0.000000
      f-3     :    -0.000000
  1 Cls       :     0.002847  s :     0.002847
      pz      :     0.062774  p :     0.230739
      px      :     0.105153
      py      :     0.062812
  2 Cls       :     0.002854  s :     0.002854
      pz      :     0.062869  p :     0.231253
      px      :     0.067655
      py      :     0.100729
  3 Cls       :     0.002859  s :     0.002859
      pz      :     0.091567  p :     0.231610
      px      :     0.067637
      py      :     0.072406
  4 Cls       :     0.002859  s :     0.002859
      pz      :     0.091569  p :     0.231613
      px      :     0.067637
      py      :     0.072407


                      *****************************
                      * MAYER POPULATION ANALYSIS *
                      *****************************

  NA   - Mulliken gross atomic population
  ZA   - Total nuclear charge
  QA   - Mulliken gross atomic charge
  VA   - Mayer's total valence
  BVA  - Mayer's bonded valence
  FA   - Mayer's free valence

  ATOM       NA         ZA         QA         VA         BVA        FA
  0 Fe    25.6403    26.0000     0.3597     7.5244     4.1434     3.3810
  1 Cl    17.3404    17.0000    -0.3404     1.0494     1.0294     0.0200
  2 Cl    17.3398    17.0000    -0.3398     1.0500     1.0299     0.0201
  3 Cl    17.3398    17.0000    -0.3398     1.0499     1.0297     0.0202
  4 Cl    17.3398    17.0000    -0.3398     1.0499     1.0297     0.0202

  Mayer bond orders larger than 0.100000
B(  0-Fe,  1-Cl) :   1.0354 B(  0-Fe,  2-Cl) :   1.0361 B(  0-Fe,  3-Cl) :   1.0360 
B(  0-Fe,  4-Cl) :   1.0360 

-------
TIMINGS
-------

Total SCF time: 0 days 0 hours 0 min 8 sec 

Total time                  ....       8.724 sec
Sum of individual times     ....       8.479 sec  ( 97.2%)

Fock matrix formation       ....       7.067 sec  ( 81.0%)
  XC integration            ....       1.217 sec  ( 17.2% of F)
    Basis function eval.    ....       0.304 sec  ( 25.0% of XC)
    Density eval.           ....       0.204 sec  ( 16.7% of XC)
    XC-Functional eval.     ....       0.180 sec  ( 14.8% of XC)
    XC-Potential eval.      ....       0.227 sec  ( 18.6% of XC)
Diagonalization             ....       0.108 sec  (  1.2%)
Density matrix formation    ....       0.014 sec  (  0.2%)
Population analysis         ....       0.005 sec  (  0.1%)
Initial guess               ....       0.134 sec  (  1.5%)
Orbital Transformation      ....       0.000 sec  (  0.0%)
Orbital Orthonormalization  ....       0.000 sec  (  0.0%)
DIIS solution               ....       0.037 sec  (  0.4%)
Grid generation             ....       1.114 sec  ( 12.8%)

-------------------------   --------------------
FINAL SINGLE POINT ENERGY     -3104.452591649298
-------------------------   --------------------


                            ***************************************
                            *     ORCA property calculations      *
                            ***************************************

                                    ---------------------
                                    Active property flags
                                    ---------------------
   (+) Dipole Moment
   (+) Nuclear properties (Hyperfine,Quadrupole)


------------------------------------------------------------------------------
                       ORCA ELECTRIC PROPERTIES CALCULATION
------------------------------------------------------------------------------

Dipole Moment Calculation                       ... on
Quadrupole Moment Calculation                   ... off
Polarizability Calculation                      ... off
GBWName                                         ... fe3cl4.gbw
Electron density file                           ... fe3cl4.scfp
The origin for moment calculation is the CENTER OF MASS  = ( 0.000447,  0.000297 -0.000002)

-------------
DIPOLE MOMENT
-------------
                                X             Y             Z
Electronic contribution:      0.00684       0.00541      -0.00005
Nuclear contribution   :     -0.00303      -0.00202       0.00002
                        -----------------------------------------
Total Dipole Moment    :      0.00381       0.00339      -0.00003
                        -----------------------------------------
Magnitude (a.u.)       :      0.00510
Magnitude (Debye)      :      0.01297



--------------------
Rotational spectrum 
--------------------
 
Rotational constants in cm-1:     0.035868     0.035776     0.035724 
Rotational constants in MHz :  1075.295541  1072.541011  1070.986462 

 Dipole components along the rotational axes: 
x,y,z [a.u.] :     0.001903     0.000017     0.004735 
x,y,z [Debye]:     0.004838     0.000043     0.012034 

 


           ************************************************************
           *        Program running with 16 parallel MPI-processes    *
           *              working on a common directory               *
           ************************************************************
------------------------------------------------------------------------------
                                ORCA EPR/NMR CALCULATION
------------------------------------------------------------------------------

GBWName                      ... fe3cl4.gbw
Electron density file        ... fe3cl4.scfp
Spin density file            ... fe3cl4.scfr
Multiplicity                 ... 6
g-tensor                     ... 0
NMR chemical shifts          ... 0
Number of nuclei for epr/nmr ... 1
   Nucleus:   0Fe
       Hyperfine : Isotope=   57 I=   0.500 P=  17.280
       Quadrupole: Isotope=   57 I=   0.500 Q=   0.160
       Spin-Orbit: Zeff=  13.910
       Ncuelar Spin-Spin: Gn=   0.000
       rho(0)=Y f(grad)=Y a(iso)=N a(dip)=N a(orb)=N sigma(nmr)=N spin-spin(nmr)=all-N,DSO-N,PSO-N,FC-N,SD-N

-----------------------------------------
ELECTRIC AND MAGNETIC HYPERFINE STRUCTURE
-----------------------------------------

 -----------------------------------------------------------
 Nucleus   0Fe: A:ISTP=   57 I=  0.5 P= 17.2798 MHz/au**3
                Q:ISTP=   57 I=  0.5 Q=  0.1600 barn     
 -----------------------------------------------------------
 Raw EFG matrix (all values in a.u.**-3):
            -0.0031       0.0052      -0.0000
             0.0052       0.0023      -0.0000
            -0.0000      -0.0000       0.0008

 V(El)       0.0015       0.0086      -0.0102
 V(Nuc)     -0.0007      -0.0032       0.0039
         ----------   ----------   ----------
 V(Tot)      0.0008       0.0055      -0.0063 
 Orientation: 
  X       0.0012029    0.5175997   -0.8556220
  Y       0.0045345    0.8556110    0.5175994
  Z       0.9999890   -0.0045024   -0.0013178

Note: Tensor is right-handed

Moessbauer quadrupole splitting parameter (proper coordinate system)
 e**2qQ  =   -0.235 MHz =   -0.020 mm/s
 eta     =  0.742
 Delta-EQ=(1/2{e**2qQ}*sqrt(1+1/3*eta**2) =   -0.128 MHz =   -0.011 mm/s
 RHO(0)=  11816.805843272 a.u.**-3


------------------------------------------------------------------------------- 

Timings for individual modules:

Sum of individual times         ...       10.071 sec (=   0.168 min)
GTO integral calculation        ...        0.683 sec (=   0.011 min)   6.8 %
SCF iterations                  ...        8.981 sec (=   0.150 min)  89.2 %
EPR/NMR calculation             ...        0.407 sec (=   0.007 min)   4.0 %
                             ****ORCA TERMINATED NORMALLY****
TOTAL RUN TIME: 0 days 0 hours 0 minutes 10 seconds 462 msec
