
                                 *****************
                                 * O   R   C   A *
                                 *****************

           --- An Ab Initio, DFT and Semiempirical electronic structure package ---

                  #######################################################
                  #                        -***-                        #
                  #          Department of theory and spectroscopy      #
                  #               Directorship: Frank Neese             #
                  #        Max Planck Institute fuer Kohlenforschung    #
                  #                Kaiser Wilhelm Platz 1               #
                  #                 D-45470 Muelheim/Ruhr               #
                  #                      Germany                        #
                  #                                                     #
                  #                  All rights reserved                #
                  #                        -***-                        #
                  #######################################################


                         Program Version 4.2.1 -  RELEASE  -


 With contributions from (in alphabetic order):
   Daniel Aravena         : Magnetic Suceptibility
   Michael Atanasov       : Ab Initio Ligand Field Theory (pilot matlab implementation)
   Alexander A. Auer      : GIAO ZORA, VPT2
   Ute Becker             : Parallelization
   Giovanni Bistoni       : ED, misc. LED, open-shell LED, HFLD
   Martin Brehm           : Molecular dynamics
   Dmytro Bykov           : SCF Hessian
   Vijay G. Chilkuri      : MRCI spin determinant printing, contributions to CSF-ICE
   Dipayan Datta          : RHF DLPNO-CCSD density
   Achintya Kumar Dutta   : EOM-CC, STEOM-CC
   Dmitry Ganyushin       : Spin-Orbit,Spin-Spin,Magnetic field MRCI
   Miquel Garcia          : C-PCM Hessian, Gaussian charge scheme
   Yang Guo               : DLPNO-NEVPT2, CIM, IAO-localization
   Andreas Hansen         : Spin unrestricted coupled pair/coupled cluster methods
   Benjamin Helmich-Paris : CASSCF linear response (MC-RPA)
   Lee Huntington         : MR-EOM, pCC
   Robert Izsak           : Overlap fitted RIJCOSX, COSX-SCS-MP3, EOM
   Christian Kollmar      : KDIIS, OOCD, Brueckner-CCSD(T), CCSD density
   Simone Kossmann        : Meta GGA functionals, TD-DFT gradient, OOMP2, MP2 Hessian
   Martin Krupicka        : AUTO-CI
   Lucas Lang             : DCDCAS
   Dagmar Lenk            : GEPOL surface, SMD
   Dimitrios Liakos       : Extrapolation schemes; Compound Job, initial MDCI parallelization
   Dimitrios Manganas     : Further ROCIS development; embedding schemes
   Dimitrios Pantazis     : SARC Basis sets
   Taras Petrenko         : DFT Hessian,TD-DFT gradient, ASA, ECA, R-Raman, ABS, FL, XAS/XES, NRVS
   Peter Pinski           : DLPNO-MP2, DLPNO-MP2 Gradient
   Christoph Reimann      : Effective Core Potentials
   Marius Retegan         : Local ZFS, SOC
   Christoph Riplinger    : Optimizer, TS searches, QM/MM, DLPNO-CCSD(T), (RO)-DLPNO pert. Triples
   Tobias Risthaus        : Range-separated hybrids, TD-DFT gradient, RPA, STAB
   Michael Roemelt        : Original ROCIS implementation
   Masaaki Saitow         : Open-shell DLPNO-CCSD energy and density
   Barbara Sandhoefer     : DKH picture change effects
   Avijit Sen             : IP-ROCIS
   Kantharuban Sivalingam : CASSCF convergence, NEVPT2, FIC-MRCI
   Bernardo de Souza      : ESD, SOC TD-DFT
   Georgi Stoychev        : AutoAux, RI-MP2 NMR
   Willem Van den Heuvel  : Paramagnetic NMR
   Boris Wezisla          : Elementary symmetry handling
   Frank Wennmohs         : Technical directorship


 We gratefully acknowledge several colleagues who have allowed us to
 interface, adapt or use parts of their codes:
   Stefan Grimme, W. Hujo, H. Kruse,             : VdW corrections, initial TS optimization,
                  C. Bannwarth                     DFT functionals, gCP, sTDA/sTD-DF
   Ed Valeev, F. Pavosevic, A. Kumar             : LibInt (2-el integral package), F12 methods
   Garnet Chan, S. Sharma, J. Yang, R. Olivares  : DMRG
   Ulf Ekstrom                                   : XCFun DFT Library
   Mihaly Kallay                                 : mrcc  (arbitrary order and MRCC methods)
   Andreas Klamt, Michael Diedenhofen            : otool_cosmo (COSMO solvation model)
   Jiri Pittner, Ondrej Demel                    : Mk-CCSD
   Frank Weinhold                                : gennbo (NPA and NBO analysis)
   Christopher J. Cramer and Donald G. Truhlar   : smd solvation model
   Lars Goerigk                                  : TD-DFT with DH, B97 family of functionals
   V. Asgeirsson, H. Jonsson                     : NEB implementation
   FAccTs GmbH                                   : IRC, NEB, NEB-TS, Multilevel, MM, QM/MM, CI optimization
   S Lehtola, MJT Oliveira, MAL Marques          : LibXC Library


 Your calculation uses the libint2 library for the computation of 2-el integrals
 For citations please refer to: http://libint.valeyev.net

 Your ORCA version has been built with support for libXC version: 4.2.3
 For citations please refer to: https://tddft.org/programs/libxc/

 This ORCA versions uses:
   CBLAS   interface :  Fast vector & matrix operations
   LAPACKE interface :  Fast linear algebra routines
   SCALAPACK package :  Parallel linear algebra routines


----- Orbital basis set information -----
Your calculation utilizes the basis: 6-31G
   H-He, Li-Ne : W. J. Hehre, R. Ditchfield and J.A. Pople, J. Chem. Phys. 56, 2257 (1972).
                 Note: He and Ne are unpublished basis sets taken from the Gaussian program.
                 Note: Li and B from J. D. Dill and J. A. Pople, J. Chem. Phys. 62, 2921 (1975).
   Na - Ar     : M. M. Francl, W. J. Pietro, W. J. Hehre, J. S. Binkley, M. S. Gordon, 
                 D. J. DeFrees and J. A. Pople, J. Chem. Phys. 77, 3654 (1982).
   K - Zn      : V. A. Rassolov, J. A. Pople, M. A. Ratner, and T. L. Windus, J. Chem. Phys. 109, 1223 (1998).

================================================================================
                                        WARNINGS
                       Please study these warnings very carefully!
================================================================================


WARNING: your system is open-shell and RHF/RKS was chosen
  ===> : WILL SWITCH to UHF/UKS


INFO   : the flag for use of LIBINT has been found!

================================================================================
                                       INPUT FILE
================================================================================
NAME = fe3az.inp
|  1> ! DFT B3LYP 6-31g TightSCF Grid5 NoFinalGrid SlowConv
|  2> %pal
|  3> nprocs 16
|  4> end
|  5> %method SpecialGridAtoms 26
|  6> SpecialGridIntAcc 7
|  7> end
|  8> %basis NewGTO 26 "CP(PPP)" end
|  9> end
| 10> # [Fe(lll)Az]1+  s = 1/2
| 11> * xyz 1 2
| 12> Fe 0.022934 -0.015741 0.001763
| 13> N 2.001882 -0.168113 -0.406410
| 14> H 2.466331 0.303514 0.374597
| 15> N -0.031051 -1.547153 1.335126
| 16> H 0.306429 -1.067000 2.176633
| 17> N 0.422904 1.087192 1.571240
| 18> N 0.936171 2.169091 1.712859
| 19> N 1.415196 3.208288 1.923100
| 20> C 2.308956 0.621958 -1.639286
| 21> H 2.009045 0.020683 -2.501180
| 22> H 3.382152 0.827744 -1.705455
| 23> C 2.548760 -1.561539 -0.447329
| 24> H 3.623433 -1.505097 -0.656914
| 25> H 2.054710 -2.078051 -1.273675
| 26> C 2.310620 -2.297055 0.871961
| 27> H 2.661812 -1.690517 1.717555
| 28> H 2.924541 -3.203495 0.864077
| 29> C 0.861739 -2.724773 1.107631
| 30> H 0.477072 -3.280429 0.247669
| 31> H 0.810754 -3.372470 1.990460
| 32> C -1.455480 -1.926505 1.589333
| 33> H -1.540972 -2.492222 2.522788
| 34> H -1.784685 -2.565878 0.766310
| 35> C 1.501896 1.906113 -1.565698
| 36> N 0.076842 1.520762 -1.325150
| 37> N -1.959544 0.137464 0.405761
| 38> H -2.438690 -0.332712 -0.366894
| 39> C -2.264284 -0.643422 1.646780
| 40> H -1.964734 -0.033304 2.502275
| 41> H -3.337159 -0.849725 1.714961
| 42> N -0.348262 -1.139014 -1.561295
| 43> N -1.180131 -2.000815 -1.721108
| 44> N -1.950972 -2.840167 -1.952411
| 45> C -2.508184 1.531197 0.440942
| 46> H -3.581675 1.474561 0.654958
| 47> H -2.014882 2.051719 1.264981
| 48> C -2.274665 2.259171 -0.883084
| 49> H -2.623735 1.645942 -1.724858
| 50> H -2.892097 3.163392 -0.880571
| 51> C -0.828368 2.693499 -1.119976
| 52> H -0.245093 1.032794 -2.168264
| 53> H -0.455811 3.270520 -0.269553
| 54> H 1.590062 2.488853 -2.488312
| 55> H 1.826457 2.529027 -0.728275
| 56> H -0.778775 3.328033 -2.012219
| 57> *
| 58> # Note that the EPR block needs to below the coordinate block for 
| 59> # the “all Fe” command (all irons) to be recognized. 
| 60> %eprnmr nuclei = all Fe {rho, fgrad}
| 61> end
| 62> 
| 63>                          ****END OF INPUT****
================================================================================

                       ****************************
                       * Single Point Calculation *
                       ****************************

---------------------------------
CARTESIAN COORDINATES (ANGSTROEM)
---------------------------------
  Fe     0.022934   -0.015741    0.001763
  N      2.001882   -0.168113   -0.406410
  H      2.466331    0.303514    0.374597
  N     -0.031051   -1.547153    1.335126
  H      0.306429   -1.067000    2.176633
  N      0.422904    1.087192    1.571240
  N      0.936171    2.169091    1.712859
  N      1.415196    3.208288    1.923100
  C      2.308956    0.621958   -1.639286
  H      2.009045    0.020683   -2.501180
  H      3.382152    0.827744   -1.705455
  C      2.548760   -1.561539   -0.447329
  H      3.623433   -1.505097   -0.656914
  H      2.054710   -2.078051   -1.273675
  C      2.310620   -2.297055    0.871961
  H      2.661812   -1.690517    1.717555
  H      2.924541   -3.203495    0.864077
  C      0.861739   -2.724773    1.107631
  H      0.477072   -3.280429    0.247669
  H      0.810754   -3.372470    1.990460
  C     -1.455480   -1.926505    1.589333
  H     -1.540972   -2.492222    2.522788
  H     -1.784685   -2.565878    0.766310
  C      1.501896    1.906113   -1.565698
  N      0.076842    1.520762   -1.325150
  N     -1.959544    0.137464    0.405761
  H     -2.438690   -0.332712   -0.366894
  C     -2.264284   -0.643422    1.646780
  H     -1.964734   -0.033304    2.502275
  H     -3.337159   -0.849725    1.714961
  N     -0.348262   -1.139014   -1.561295
  N     -1.180131   -2.000815   -1.721108
  N     -1.950972   -2.840167   -1.952411
  C     -2.508184    1.531197    0.440942
  H     -3.581675    1.474561    0.654958
  H     -2.014882    2.051719    1.264981
  C     -2.274665    2.259171   -0.883084
  H     -2.623735    1.645942   -1.724858
  H     -2.892097    3.163392   -0.880571
  C     -0.828368    2.693499   -1.119976
  H     -0.245093    1.032794   -2.168264
  H     -0.455811    3.270520   -0.269553
  H      1.590062    2.488853   -2.488312
  H      1.826457    2.529027   -0.728275
  H     -0.778775    3.328033   -2.012219

----------------------------
CARTESIAN COORDINATES (A.U.)
----------------------------
  NO LB      ZA    FRAG     MASS         X           Y           Z
   0 Fe   26.0000    0    55.850    0.043339   -0.029746    0.003332
   1 N     7.0000    0    14.007    3.783009   -0.317688   -0.768004
   2 H     1.0000    0     1.008    4.660690    0.573558    0.707886
   3 N     7.0000    0    14.007   -0.058678   -2.923695    2.523022
   4 H     1.0000    0     1.008    0.579067   -2.016338    4.113240
   5 N     7.0000    0    14.007    0.799173    2.054495    2.969213
   6 N     7.0000    0    14.007    1.769107    4.098988    3.236834
   7 N     7.0000    0    14.007    2.674333    6.062786    3.634132
   8 C     6.0000    0    12.011    4.363294    1.175330   -3.097802
   9 H     1.0000    0     1.008    3.796545    0.039085   -4.726545
  10 H     1.0000    0     1.008    6.391341    1.564209   -3.222843
  11 C     6.0000    0    12.011    4.816458   -2.950881   -0.845329
  12 H     1.0000    0     1.008    6.847296   -2.844221   -1.241388
  13 H     1.0000    0     1.008    3.882839   -3.926947   -2.406897
  14 C     6.0000    0    12.011    4.366439   -4.340805    1.647767
  15 H     1.0000    0     1.008    5.030096   -3.194614    3.245709
  16 H     1.0000    0     1.008    5.526582   -6.053728    1.632869
  17 C     6.0000    0    12.011    1.628451   -5.149075    2.093119
  18 H     1.0000    0     1.008    0.901535   -6.199112    0.468027
  19 H     1.0000    0     1.008    1.532103   -6.373045    3.761424
  20 C     6.0000    0    12.011   -2.750459   -3.640567    3.003404
  21 H     1.0000    0     1.008   -2.912015   -4.709617    4.767378
  22 H     1.0000    0     1.008   -3.372566   -4.848807    1.448116
  23 C     6.0000    0    12.011    2.838172    3.602032   -2.958740
  24 N     7.0000    0    14.007    0.145210    2.873824   -2.504171
  25 N     7.0000    0    14.007   -3.703002    0.259769    0.766777
  26 H     1.0000    0     1.008   -4.608456   -0.628735   -0.693329
  27 C     6.0000    0    12.011   -4.278877   -1.215891    3.111963
  28 H     1.0000    0     1.008   -3.712809   -0.062935    4.728614
  29 H     1.0000    0     1.008   -6.306317   -1.605748    3.240807
  30 N     7.0000    0    14.007   -0.658120   -2.152425   -2.950420
  31 N     7.0000    0    14.007   -2.230124   -3.780992   -3.252423
  32 N     7.0000    0    14.007   -3.686803   -5.367138   -3.689522
  33 C     6.0000    0    12.011   -4.739781    2.893543    0.833260
  34 H     1.0000    0     1.008   -6.768385    2.786516    1.237691
  35 H     1.0000    0     1.008   -3.807575    3.877187    2.390468
  36 C     6.0000    0    12.011   -4.298494    4.269214   -1.668787
  37 H     1.0000    0     1.008   -4.958141    3.110380   -3.259509
  38 H     1.0000    0     1.008   -5.465271    5.977945   -1.664038
  39 C     6.0000    0    12.011   -1.565389    5.089975   -2.116448
  40 H     1.0000    0     1.008   -0.463159    1.951698   -4.097425
  41 H     1.0000    0     1.008   -0.861358    6.180387   -0.509381
  42 H     1.0000    0     1.008    3.004782    4.703251   -4.702228
  43 H     1.0000    0     1.008    3.451504    4.779168   -1.376240
  44 H     1.0000    0     1.008   -1.471671    6.289071   -3.802543

--------------------------------
INTERNAL COORDINATES (ANGSTROEM)
--------------------------------
 Fe     0   0   0     0.000000000000     0.00000000     0.00000000
 N      1   0   0     2.026340941455     0.00000000     0.00000000
 H      2   1   0     1.023775773682   104.75843053     0.00000000
 N      1   2   3     2.031254288300    95.82494615   280.01187671
 H      4   1   2     1.025950137608   100.18505126    81.85157055
 N      1   2   3     1.959514035907    90.24753630     4.50051803
 N      6   1   2     1.205821048353   133.31178658    63.24668275
 N      7   6   1     1.163441719002   176.28088019   174.84297544
 C      2   1   3     1.496158366582   109.06980618   245.74272014
 H      9   2   1     1.092858408387   107.63904045   280.67090628
 H      9   2   1     1.094749226432   110.50385649   161.80510356
 C      2   1   3     1.497459825478   115.60332401   116.85377730
 H     12   2   1     1.096372942259   108.37862391   181.04829034
 H     12   2   1     1.092573915284   107.18334854    63.72588118
 C     12   2   1     1.529124112018   111.53911774   302.31115757
 H     15  12   2     1.098295670184   110.41565065   308.79822775
 H     15  12   2     1.094803464233   107.74030858   192.90797393
 C      4   1   2     1.495197921188   118.55795123   325.66335815
 H     18   4   1     1.093735311979   108.04460434   288.99557152
 H     18   4   1     1.096128604350   108.36523982   171.66540929
 C      4   1   2     1.495836593614   109.15120082   194.00130834
 H     21   4   1     1.094843752861   110.50510788   199.04337910
 H     21   4   1     1.092950421420   107.89147969    80.65058764
 C      9   2   1     1.518491060681   107.31095441    40.15601205
 N     24   9   2     1.495706400475   107.23533778   307.27838450
 N      1   2   3     2.029015814752   179.86322264   142.63584071
 H     26   1   6     1.023543897113   105.80699621   175.66207928
 C     26   1   6     1.497590588565   108.93203304   290.28143603
 H     28  26   1     1.092632541822   107.57044294    79.27925458
 H     28  26   1     1.094655353157   110.44590719   198.09954586
 N      1   2   3     1.960275239427    88.92423662   185.14084126
 N     31   1   2     1.208406881696   130.12576572   142.20759942
 N     32  31   1     1.162845090712   175.87981986   179.79643208
 C     26   1   6     1.498244048094   115.63935708    58.83405275
 H     34  26   1     1.096080933067   108.37044423   179.31835331
 H     34  26   1     1.092396580555   107.19397279   296.40114767
 C     34  26   1     1.528895718064   111.51004570    58.00796820
 H     37  34  26     1.098400263300   110.44480249    50.96296926
 H     37  34  26     1.094917442839   107.76411362   166.89205763
 C     25  24   9     1.495598069518   113.37214500   175.40315599
 H     25  24   9     1.025961076379   106.81850639   293.25754584
 H     40  25  24     1.093147397023   108.32167271   301.88506961
 H     24   9   2     1.094794841124   111.49981533   186.25537510
 H     24   9   2     1.092995414010   111.17824975    64.94867248
 H     40  25  24     1.095988336550   108.35527372    59.04578757

---------------------------
INTERNAL COORDINATES (A.U.)
---------------------------
 Fe     0   0   0     0.000000000000     0.00000000     0.00000000
 N      1   0   0     3.829229433302     0.00000000     0.00000000
 H      2   1   0     1.934655834803   104.75843053     0.00000000
 N      1   2   3     3.838514313241    95.82494615   280.01187671
 H      4   1   2     1.938764787138   100.18505126    81.85157055
 N      1   2   3     3.702944883440    90.24753630     4.50051803
 N      6   1   2     2.278671547905   133.31178658    63.24668275
 N      7   6   1     2.198586221693   176.28088019   174.84297544
 C      2   1   3     2.827329565815   109.06980618   245.74272014
 H      9   2   1     2.065203095004   107.63904045   280.67090628
 H      9   2   1     2.068776223278   110.50385649   161.80510356
 C      2   1   3     2.829788966703   115.60332401   116.85377730
 H     12   2   1     2.071844601511   108.37862391   181.04829034
 H     12   2   1     2.064665480954   107.18334854    63.72588118
 C     12   2   1     2.889625796490   111.53911774   302.31115757
 H     15  12   2     2.075478030718   110.41565065   308.79822775
 H     15  12   2     2.068878717869   107.74030858   192.90797393
 C      4   1   2     2.825514587054   118.55795123   325.66335815
 H     18   4   1     2.066860202639   108.04460434   288.99557152
 H     18   4   1     2.071382869779   108.36523982   171.66540929
 C      4   1   2     2.826721503028   109.15120082   194.00130834
 H     21   4   1     2.068954852341   110.50510788   199.04337910
 H     21   4   1     2.065376974438   107.89147969    80.65058764
 C      9   2   1     2.869532241495   107.31095441    40.15601205
 N     24   9   2     2.826475473650   107.23533778   307.27838450
 N      1   2   3     3.834284211276   179.86322264   142.63584071
 H     26   1   6     1.934217651590   105.80699621   175.66207928
 C     26   1   6     2.830036073125   108.93203304   290.28143603
 H     28  26   1     2.064776269054   107.57044294    79.27925458
 H     28  26   1     2.068598828497   110.44590719   198.09954586
 N      1   2   3     3.704383349623    88.92423662   185.14084126
 N     31   1   2     2.283558064752   130.12576572   142.20759942
 N     32  31   1     2.197458757621   175.87981986   179.79643208
 C     26   1   6     2.831270932676   115.63935708    58.83405275
 H     34  26   1     2.071292784109   108.37044423   179.31835331
 H     34  26   1     2.064330366882   107.19397279   296.40114767
 C     34  26   1     2.889194194465   111.51004570    58.00796820
 H     37  34  26     2.075675683064   110.44480249    50.96296926
 H     37  34  26     2.069094106220   107.76411362   166.89205763
 C     25  24   9     2.826270757810   113.37214500   175.40315599
 H     25  24   9     1.938785458420   106.81850639   293.25754584
 H     40  25  24     2.065749204383   108.32167271   301.88506961
 H     24   9   2     2.068862422554   111.49981533   186.25537510
 H     24   9   2     2.065461998110   111.17824975    64.94867248
 H     40  25  24     2.071117802052   108.35527372    59.04578757

---------------------
BASIS SET INFORMATION
---------------------
There are 4 groups of distinct atoms

 Group   1 Type Fe  : 17s11p5d1f contracted to 17s7p3d1f pattern {11111111111111111/3311111/311/1}
 Group   2 Type N   : 10s4p contracted to 3s2p pattern {631/31}
 Group   3 Type H   : 4s contracted to 2s pattern {31}
 Group   4 Type C   : 10s4p contracted to 3s2p pattern {631/31}

Atom   0Fe   basis set group =>   1
Atom   1N    basis set group =>   2
Atom   2H    basis set group =>   3
Atom   3N    basis set group =>   2
Atom   4H    basis set group =>   3
Atom   5N    basis set group =>   2
Atom   6N    basis set group =>   2
Atom   7N    basis set group =>   2
Atom   8C    basis set group =>   4
Atom   9H    basis set group =>   3
Atom  10H    basis set group =>   3
Atom  11C    basis set group =>   4
Atom  12H    basis set group =>   3
Atom  13H    basis set group =>   3
Atom  14C    basis set group =>   4
Atom  15H    basis set group =>   3
Atom  16H    basis set group =>   3
Atom  17C    basis set group =>   4
Atom  18H    basis set group =>   3
Atom  19H    basis set group =>   3
Atom  20C    basis set group =>   4
Atom  21H    basis set group =>   3
Atom  22H    basis set group =>   3
Atom  23C    basis set group =>   4
Atom  24N    basis set group =>   2
Atom  25N    basis set group =>   2
Atom  26H    basis set group =>   3
Atom  27C    basis set group =>   4
Atom  28H    basis set group =>   3
Atom  29H    basis set group =>   3
Atom  30N    basis set group =>   2
Atom  31N    basis set group =>   2
Atom  32N    basis set group =>   2
Atom  33C    basis set group =>   4
Atom  34H    basis set group =>   3
Atom  35H    basis set group =>   3
Atom  36C    basis set group =>   4
Atom  37H    basis set group =>   3
Atom  38H    basis set group =>   3
Atom  39C    basis set group =>   4
Atom  40H    basis set group =>   3
Atom  41H    basis set group =>   3
Atom  42H    basis set group =>   3
Atom  43H    basis set group =>   3
Atom  44H    basis set group =>   3


           ************************************************************
           *        Program running with 16 parallel MPI-processes    *
           *              working on a common directory               *
           ************************************************************
------------------------------------------------------------------------------
                           ORCA GTO INTEGRAL CALCULATION
------------------------------------------------------------------------------

                         BASIS SET STATISTICS AND STARTUP INFO

 # of primitive gaussian shells          ...  410
 # of primitive gaussian functions       ...  618
 # of contracted shells                  ...  176
 # of contracted basis functions         ...  288
 Highest angular momentum                ...    3
 Maximum contraction depth               ...    6
 Integral package used                   ... LIBINT
 Integral threshhold            Thresh   ...  2.500e-11
 Primitive cut-off              TCut     ...  2.500e-12


------------------------------ INTEGRAL EVALUATION ----------------------------


 * One electron integrals 
 Pre-screening matrix                    ... done
 Shell pair data                         ... done (   0.012 sec)



           ************************************************************
           *        Program running with 16 parallel MPI-processes    *
           *              working on a common directory               *
           ************************************************************
-------------------------------------------------------------------------------
                                 ORCA SCF
-------------------------------------------------------------------------------

------------
SCF SETTINGS
------------
Hamiltonian:
 Density Functional     Method          .... DFT(GTOs)
 Exchange Functional    Exchange        .... B88
   X-Alpha parameter    XAlpha          ....  0.666667
   Becke's b parameter  XBeta           ....  0.004200
 Correlation Functional Correlation     .... LYP
 LDA part of GGA corr.  LDAOpt          .... VWN-5
 Gradients option       PostSCFGGA      .... off
 Hybrid DFT is turned on
   Fraction HF Exchange ScalHFX         ....  0.200000
   Scaling of DF-GGA-X  ScalDFX         ....  0.720000
   Scaling of DF-GGA-C  ScalDFC         ....  0.810000
   Scaling of DF-LDA-C  ScalLDAC        ....  1.000000
   Perturbative correction              ....  0.000000
   Density functional embedding theory  .... OFF
   NL short-range parameter             ....  4.800000


General Settings:
 Integral files         IntName         .... fe3az
 Hartree-Fock type      HFTyp           .... UHF
 Total Charge           Charge          ....    1
 Multiplicity           Mult            ....    2
 Number of Electrons    NEL             ....  179
 Basis Dimension        Dim             ....  288
 Nuclear Repulsion      ENuc            ....   2554.1277645406 Eh

Convergence Acceleration:
 DIIS                   CNVDIIS         .... on
   Start iteration      DIISMaxIt       ....     0
   Startup error        DIISStart       ....  0.200000
   # of expansion vecs  DIISMaxEq       ....     5
   Bias factor          DIISBfac        ....   1.050
   Max. coefficient     DIISMaxC        ....  10.000
 Newton-Raphson         CNVNR           .... off
 SOSCF                  CNVSOSCF        .... off
 Level Shifting         CNVShift        .... on
   Level shift para.    LevelShift      ....    0.2500
   Turn off err/grad.   ShiftErr        ....    0.0000
 Zerner damping         CNVZerner       .... off
 Static damping         CNVDamp         .... on
   Fraction old density DampFac         ....    0.8500
   Max. Damping (<1)    DampMax         ....    0.9800
   Min. Damping (>=0)   DampMin         ....    0.0000
   Turn off err/grad.   DampErr         ....    0.0300
 Fernandez-Rico         CNVRico         .... off

SCF Procedure:
 Maximum # iterations   MaxIter         ....   125
 SCF integral mode      SCFMode         .... Direct
   Integral package                     .... LIBINT
 Reset frequency        DirectResetFreq ....    20
 Integral Threshold     Thresh          ....  2.500e-11 Eh
 Primitive CutOff       TCut            ....  2.500e-12 Eh

Convergence Tolerance:
 Convergence Check Mode ConvCheckMode   .... Total+1el-Energy
 Convergence forced     ConvForced      .... 0
 Energy Change          TolE            ....  1.000e-08 Eh
 1-El. energy change                    ....  1.000e-05 Eh
 DIIS Error             TolErr          ....  5.000e-07


Diagonalization of the overlap matrix:
Smallest eigenvalue                        ... 1.511e-03
Time for diagonalization                   ...    0.022 sec
Threshold for overlap eigenvalues          ... 1.000e-08
Number of eigenvalues below threshold      ... 0
Time for construction of square roots      ...    0.013 sec
Total time needed                          ...    0.036 sec

-------------------
DFT GRID GENERATION
-------------------

General Integration Accuracy     IntAcc      ...  5.010
Radial Grid Type                 RadialGrid  ... Gauss-Chebyshev
Angular Grid (max. acc.)         AngularGrid ... Lebedev-434
Angular grid pruning method      GridPruning ... 3 (G Style)
Weight generation scheme         WeightScheme... Becke
Basis function cutoff            BFCut       ...    1.0000e-11
Integration weight cutoff        WCut        ...    1.0000e-14
Grids for H and He will be reduced by one unit

SpecialGrid => Setting IntAcc for atom type =  26 to   7.0000
# of grid points (after initial pruning)     ... 398054 (   0.0 sec)
# of grid points (after weights+screening)   ... 336845 (   0.8 sec)
nearest neighbour list constructed           ...    0.0 sec
Grid point re-assignment to atoms done       ...    0.1 sec
Grid point division into batches done        ...    2.5 sec
Reduced shell lists constructed in    3.0 sec

Total number of grid points                  ...   336845
Total number of batches                      ...     5286
Average number of points per batch           ...       63
Average number of grid points per atom       ...     7485
Average number of shells per batch           ...   121.44 (69.00%)
Average number of basis functions per batch  ...   217.80 (75.63%)
Average number of large shells per batch     ...    89.59 (73.77%)
Average number of large basis fcns per batch ...   166.86 (76.61%)
Maximum spatial batch extension              ...   6.98,  7.27,  5.54 au
Average spatial batch extension              ...   0.05,  0.05,  0.05 au

Time for grid setup =    3.846 sec

------------------------------
INITIAL GUESS: MODEL POTENTIAL
------------------------------
Loading Hartree-Fock densities                     ... done
Calculating cut-offs                               ... done
Setting up the integral package                    ... done
Initializing the effective Hamiltonian             ... done
Starting the Coulomb interaction                   ... done (   0.1 sec)
Reading the grid                                   ... done
Mapping shells                                     ... done
Starting the XC term evaluation                    ... done (   0.4 sec)
  promolecular density results
     # of electrons  =    179.988790079
     EX              =   -178.830838572
     EC              =     -6.456403028
     EX+EC           =   -185.287241599
Transforming the Hamiltonian                       ... done (   0.0 sec)
Diagonalizing the Hamiltonian                      ... done (   0.0 sec)
Back transforming the eigenvectors                 ... done (   0.0 sec)
Now organizing SCF variables                       ... done
                      ------------------
                      INITIAL GUESS DONE (   4.4 sec)
                      ------------------
--------------
SCF ITERATIONS
--------------
ITER       Energy         Delta-E        Max-DP      RMS-DP      [F,P]     Damp
               ***  Starting incremental Fock matrix formation  ***
  0  -2205.1144216633   0.000000000000 0.03049897  0.00057313  0.5047925 0.8500
  1  -2205.2517410842  -0.137319420883 0.02942609  0.00055715  0.4296540 0.8500
                               ***Turning on DIIS***
  2  -2205.3318294328  -0.080088348563 0.02361208  0.00042610  0.3654881 0.8500
  3  -2205.3814142614  -0.049584828647 0.01581039  0.00024768  0.3107386 0.8500
  4  -2205.4188326784  -0.037418416930 0.01053925  0.00015585  0.2640509 0.8500
  5  -2205.4469174208  -0.028084742411 0.00834496  0.00012293  0.2245050 0.8500
  6  -2205.4701946962  -0.023277275412 0.00754370  0.00010751  0.1908769 0.8500
  7  -2205.4902299906  -0.020035294411 0.00710785  0.00010087  0.1622481 0.8500
  8  -2205.5076219903  -0.017391999707 0.00619839  0.00008677  0.1379156 0.8500
  9  -2205.5221752804  -0.014553290092 0.00492852  0.00007100  0.1172047 0.8500
 10  -2205.5342515179  -0.012076237511 0.00391484  0.00005922  0.0996267 0.8500
 11  -2205.5443835373  -0.010132019353 0.00332788  0.00005093  0.0846916 0.8500
 12  -2205.5529639491  -0.008580411824 0.00293436  0.00004446  0.0719883 0.8500
 13  -2205.5602415011  -0.007277552002 0.00252087  0.00003836  0.0611898 0.8500
 14  -2205.5664002363  -0.006158735197 0.00206761  0.00003267  0.0520105 0.8500
 15  -2205.5716097451  -0.005209508781 0.00168641  0.00002788  0.0442108 0.8500
 16  -2205.5760246033  -0.004414858211 0.00142611  0.00002405  0.0375804 0.8500
 17  -2205.5797719456  -0.003747342311 0.00123056  0.00002091  0.0319426 0.8500
 18  -2205.5829543834  -0.003182437834 0.00696081  0.00012112  0.0271512 0.0000
 19  -2205.6009814489  -0.018027065491 0.00070379  0.00001255  0.0007831 0.0000
               *** Restarting incremental Fock matrix formation ***
                                   *** Resetting DIIS ***
 20  -2205.6009923904  -0.000010941449 0.00120006  0.00001801  0.0013380 0.0000
 21  -2205.6009850994   0.000007290917 0.00047198  0.00000857  0.0023262 0.0000
 22  -2205.6010145346  -0.000029435180 0.00026477  0.00000524  0.0009767 0.0000
 23  -2205.6010238871  -0.000009352437 0.00022367  0.00000549  0.0002410 0.0000
 24  -2205.6010313785  -0.000007491441 0.00029900  0.00000694  0.0002195 0.0000
 25  -2205.6010399078  -0.000008529267 0.00025442  0.00000576  0.0002204 0.0000
 26  -2205.6010462753  -0.000006367577 0.00033514  0.00000752  0.0002203 0.0000
 27  -2205.6010534831  -0.000007207730 0.00024287  0.00000542  0.0002216 0.0000
 28  -2205.6010582473  -0.000004764203 0.00038970  0.00000830  0.0002154 0.0000
 29  -2205.6010643724  -0.000006125118 0.00021804  0.00000470  0.0002144 0.0000
 30  -2205.6010674928  -0.000003120383 0.00030108  0.00000616  0.0002010 0.0000
 31  -2205.6010709250  -0.000003432196 0.00024713  0.00000503  0.0001944 0.0000
 32  -2205.6010734252  -0.000002500236 0.00016749  0.00000313  0.0001817 0.0000
 33  -2205.6010748365  -0.000001411267 0.00029144  0.00000517  0.0001703 0.0000
 34  -2205.6010768311  -0.000001994584 0.00024438  0.00000429  0.0001634 0.0000
 35  -2205.6010782592  -0.000001428190 0.00034548  0.00000554  0.0001488 0.0000
 36  -2205.6010797282  -0.000001468909 0.00007847  0.00000171  0.0001516 0.0000
 37  -2205.6010797524  -0.000000024219 0.00003156  0.00000079  0.0001314 0.0000
 38  -2205.6010798327  -0.000000080367 0.00013094  0.00000191  0.0001423 0.0000
 39  -2205.6010803698  -0.000000537042 0.00008457  0.00000129  0.0001194 0.0000
               *** Restarting incremental Fock matrix formation ***
                                   *** Resetting DIIS ***
 40  -2205.6010806831  -0.000000313339 0.00008057  0.00000124  0.0001123 0.0000
 41  -2205.6010809302  -0.000000247085 0.00005362  0.00000086  0.0001076 0.0000
 42  -2205.6010811627  -0.000000232509 0.00005519  0.00000076  0.0001036 0.0000
 43  -2205.6010813443  -0.000000181538 0.00008350  0.00000113  0.0001007 0.0000
 44  -2205.6010816110  -0.000000266769 0.00013376  0.00000166  0.0000976 0.0000
 45  -2205.6010819756  -0.000000364614 0.00004073  0.00000070  0.0000924 0.0000
 46  -2205.6010821199  -0.000000144214 0.00029372  0.00000370  0.0000858 0.0000
 47  -2205.6010827757  -0.000000655874 0.00002509  0.00000063  0.0001458 0.0000
 48  -2205.6010828375  -0.000000061743 0.00016276  0.00000203  0.0000670 0.0000
 49  -2205.6010831513  -0.000000313792 0.00017952  0.00000231  0.0000656 0.0000
 50  -2205.6010834562  -0.000000304939 0.00003624  0.00000074  0.0000862 0.0000
 51  -2205.6010835478  -0.000000091614 0.00008805  0.00000117  0.0000480 0.0000
 52  -2205.6010836752  -0.000000127339 0.00012583  0.00000160  0.0000457 0.0000
 53  -2205.6010838303  -0.000000155152 0.00005191  0.00000082  0.0000564 0.0000
 54  -2205.6010839038  -0.000000073463 0.00013407  0.00000173  0.0000349 0.0000
 55  -2205.6010840219  -0.000000118117 0.00002056  0.00000040  0.0000741 0.0000
 56  -2205.6010840217   0.000000000207 0.00001276  0.00000020  0.0000442 0.0000
 57  -2205.6010840233  -0.000000001600 0.00002033  0.00000029  0.0000297 0.0000
 58  -2205.6010840434  -0.000000020152 0.00002175  0.00000033  0.0000275 0.0000
 59  -2205.6010840659  -0.000000022433 0.00001218  0.00000018  0.0000264 0.0000
               *** Restarting incremental Fock matrix formation ***
                                   *** Resetting DIIS ***
 60  -2205.6010840561   0.000000009766 0.00001577  0.00000025  0.0000253 0.0000
 61  -2205.6010840666  -0.000000010485 0.00001411  0.00000020  0.0000248 0.0000
 62  -2205.6010840733  -0.000000006739 0.00002247  0.00000032  0.0000241 0.0000
 63  -2205.6010840897  -0.000000016352 0.00001785  0.00000025  0.0000232 0.0000
 64  -2205.6010840988  -0.000000009129 0.00003465  0.00000048  0.0000220 0.0000
 65  -2205.6010841213  -0.000000022471 0.00001144  0.00000019  0.0000209 0.0000
 66  -2205.6010841245  -0.000000003275 0.00002823  0.00000037  0.0000191 0.0000
 67  -2205.6010841376  -0.000000013071 0.00003532  0.00000049  0.0000183 0.0000
 68  -2205.6010841562  -0.000000018622 0.00002666  0.00000037  0.0000167 0.0000
 69  -2205.6010841649  -0.000000008628 0.00002050  0.00000030  0.0000147 0.0000
 70  -2205.6010841689  -0.000000004008 0.00001972  0.00000027  0.0000132 0.0000
 71  -2205.6010841721  -0.000000003245 0.00003158  0.00000043  0.0000120 0.0000
 72  -2205.6010841809  -0.000000008778 0.00001902  0.00000028  0.0000158 0.0000
 73  -2205.6010841809   0.000000000019 0.00001686  0.00000024  0.0000092 0.0000
 74  -2205.6010841837  -0.000000002794 0.00000397  0.00000008  0.0000081 0.0000
 75  -2205.6010841824   0.000000001250 0.00000857  0.00000011  0.0000077 0.0000
 76  -2205.6010841833  -0.000000000829 0.00000577  0.00000009  0.0000075 0.0000
 77  -2205.6010841817   0.000000001550 0.00000658  0.00000010  0.0000071 0.0000
 78  -2205.6010841819  -0.000000000216 0.00000276  0.00000005  0.0000068 0.0000
 79  -2205.6010841826  -0.000000000703 0.00000459  0.00000007  0.0000064 0.0000
               *** Restarting incremental Fock matrix formation ***
                                   *** Resetting DIIS ***
 80  -2205.6010842342  -0.000000051602 0.00000390  0.00000006  0.0000063 0.0000
 81  -2205.6010842247   0.000000009554 0.00000304  0.00000004  0.0000061 0.0000
 82  -2205.6010842272  -0.000000002576 0.00000225  0.00000003  0.0000059 0.0000
                 **** Energy Check signals convergence ****

               *****************************************************
               *                     SUCCESS                       *
               *           SCF CONVERGED AFTER  83 CYCLES          *
               *****************************************************


----------------
TOTAL SCF ENERGY
----------------

Total Energy       :        -2205.60108423 Eh          -60017.45673 eV

Components:
Nuclear Repulsion  :         2554.12776454 Eh           69501.34985 eV
Electronic Energy  :        -4759.72884877 Eh         -129518.80658 eV
One Electron Energy:        -8084.90050623 Eh         -220001.32743 eV
Two Electron Energy:         3325.17165746 Eh           90482.52084 eV

Virial components:
Potential Energy   :        -4405.03408708 Eh         -119867.07143 eV
Kinetic Energy     :         2199.43300285 Eh           59849.61470 eV
Virial Ratio       :            2.00280440


DFT components:
N(Alpha)           :       90.000174489544 electrons
N(Beta)            :       89.000174276584 electrons
N(Total)           :      179.000348766128 electrons
E(X)               :     -143.539240732474 Eh       
E(C)               :       -7.519023142638 Eh       
E(XC)              :     -151.058263875112 Eh       
DFET-embed. en.    :        0.000000000000 Eh       

---------------
SCF CONVERGENCE
---------------

  Last Energy change         ...    3.6789e-10  Tolerance :   1.0000e-08
  Last MAX-Density change    ...    1.5597e-06  Tolerance :   1.0000e-07
  Last RMS-Density change    ...    2.3586e-08  Tolerance :   5.0000e-09
  Last DIIS Error            ...    5.7256e-06  Tolerance :   5.0000e-07

             **** THE GBW FILE WAS UPDATED (fe3az.gbw) ****
             **** DENSITY FILE WAS UPDATED (fe3az.scfp) ****
             **** ENERGY FILE WAS UPDATED (fe3az.en.tmp) ****
----------------------
UHF SPIN CONTAMINATION
----------------------

Warning: in a DFT calculation there is little theoretical justification to 
         calculate <S**2> as in Hartree-Fock theory. We will do it anyways
         but you should keep in mind that the values have only limited relevance

Expectation value of <S**2>     :     0.776702
Ideal value S*(S+1) for S=0.5   :     0.750000
Deviation                       :     0.026702

             **** THE GBW FILE WAS UPDATED (fe3az.gbw) ****
             **** DENSITY FILE WAS UPDATED (fe3az.scfp) ****
----------------
ORBITAL ENERGIES
----------------
                 SPIN UP ORBITALS
  NO   OCC          E(Eh)            E(eV) 
   0   1.0000    -256.207591     -6971.7630 
   1   1.0000     -30.170223      -820.9735 
   2   1.0000     -26.037055      -708.5043 
   3   1.0000     -26.034530      -708.4356 
   4   1.0000     -26.018566      -708.0012 
   5   1.0000     -14.595587      -397.1661 
   6   1.0000     -14.593541      -397.1104 
   7   1.0000     -14.515789      -394.9947 
   8   1.0000     -14.513118      -394.9220 
   9   1.0000     -14.509372      -394.8201 
  10   1.0000     -14.507936      -394.7810 
  11   1.0000     -14.492368      -394.3574 
  12   1.0000     -14.488777      -394.2597 
  13   1.0000     -14.464582      -393.6013 
  14   1.0000     -14.462580      -393.5468 
  15   1.0000     -10.358342      -281.8648 
  16   1.0000     -10.358145      -281.8595 
  17   1.0000     -10.357736      -281.8483 
  18   1.0000     -10.357655      -281.8461 
  19   1.0000     -10.352224      -281.6983 
  20   1.0000     -10.352168      -281.6968 
  21   1.0000     -10.351443      -281.6771 
  22   1.0000     -10.349370      -281.6207 
  23   1.0000     -10.323953      -280.9290 
  24   1.0000     -10.322246      -280.8826 
  25   1.0000      -3.606650       -98.1419 
  26   1.0000      -2.393634       -65.1341 
  27   1.0000      -2.387420       -64.9650 
  28   1.0000      -2.353809       -64.0504 
  29   1.0000      -1.244070       -33.8529 
  30   1.0000      -1.241355       -33.7790 
  31   1.0000      -1.100170       -29.9372 
  32   1.0000      -1.089346       -29.6426 
  33   1.0000      -1.077081       -29.3089 
  34   1.0000      -1.075127       -29.2557 
  35   1.0000      -1.072142       -29.1745 
  36   1.0000      -1.061476       -28.8842 
  37   1.0000      -0.944491       -25.7009 
  38   1.0000      -0.912829       -24.8393 
  39   1.0000      -0.898901       -24.4603 
  40   1.0000      -0.856007       -23.2931 
  41   1.0000      -0.817187       -22.2368 
  42   1.0000      -0.796201       -21.6657 
  43   1.0000      -0.771632       -20.9972 
  44   1.0000      -0.766569       -20.8594 
  45   1.0000      -0.747820       -20.3492 
  46   1.0000      -0.739117       -20.1124 
  47   1.0000      -0.671880       -18.2828 
  48   1.0000      -0.660855       -17.9828 
  49   1.0000      -0.652907       -17.7665 
  50   1.0000      -0.651607       -17.7311 
  51   1.0000      -0.643940       -17.5225 
  52   1.0000      -0.628365       -17.0987 
  53   1.0000      -0.623696       -16.9716 
  54   1.0000      -0.617904       -16.8140 
  55   1.0000      -0.611495       -16.6396 
  56   1.0000      -0.610240       -16.6055 
  57   1.0000      -0.604737       -16.4557 
  58   1.0000      -0.602090       -16.3837 
  59   1.0000      -0.596197       -16.2234 
  60   1.0000      -0.595381       -16.2012 
  61   1.0000      -0.590739       -16.0748 
  62   1.0000      -0.580324       -15.7914 
  63   1.0000      -0.568682       -15.4746 
  64   1.0000      -0.560331       -15.2474 
  65   1.0000      -0.556721       -15.1491 
  66   1.0000      -0.555399       -15.1132 
  67   1.0000      -0.534780       -14.5521 
  68   1.0000      -0.533335       -14.5128 
  69   1.0000      -0.520603       -14.1663 
  70   1.0000      -0.516130       -14.0446 
  71   1.0000      -0.514798       -14.0084 
  72   1.0000      -0.513978       -13.9860 
  73   1.0000      -0.499777       -13.5996 
  74   1.0000      -0.499177       -13.5833 
  75   1.0000      -0.496183       -13.5018 
  76   1.0000      -0.488042       -13.2803 
  77   1.0000      -0.484231       -13.1766 
  78   1.0000      -0.482184       -13.1209 
  79   1.0000      -0.468825       -12.7574 
  80   1.0000      -0.454271       -12.3613 
  81   1.0000      -0.449805       -12.2398 
  82   1.0000      -0.437309       -11.8998 
  83   1.0000      -0.428157       -11.6507 
  84   1.0000      -0.411576       -11.1995 
  85   1.0000      -0.398271       -10.8375 
  86   1.0000      -0.361509        -9.8372 
  87   1.0000      -0.353153        -9.6098 
  88   1.0000      -0.347969        -9.4687 
  89   1.0000      -0.340571        -9.2674 
  90   0.0000      -0.189245        -5.1496 
  91   0.0000      -0.167739        -4.5644 
  92   0.0000      -0.102923        -2.8007 
  93   0.0000      -0.092010        -2.5037 
  94   0.0000      -0.085636        -2.3303 
  95   0.0000      -0.083057        -2.2601 
  96   0.0000      -0.075020        -2.0414 
  97   0.0000      -0.064015        -1.7419 
  98   0.0000      -0.059984        -1.6323 
  99   0.0000      -0.044921        -1.2224 
 100   0.0000      -0.034355        -0.9349 
 101   0.0000      -0.023181        -0.6308 
 102   0.0000      -0.016076        -0.4374 
 103   0.0000      -0.003319        -0.0903 
 104   0.0000      -0.001740        -0.0473 
 105   0.0000      -0.000450        -0.0122 
 106   0.0000       0.004153         0.1130 
 107   0.0000       0.007336         0.1996 
 108   0.0000       0.014593         0.3971 
 109   0.0000       0.018577         0.5055 
 110   0.0000       0.022736         0.6187 
 111   0.0000       0.024541         0.6678 
 112   0.0000       0.033032         0.8989 
 113   0.0000       0.037696         1.0258 
 114   0.0000       0.040841         1.1113 
 115   0.0000       0.046929         1.2770 
 116   0.0000       0.047559         1.2942 
 117   0.0000       0.053820         1.4645 
 118   0.0000       0.055272         1.5040 
 119   0.0000       0.062278         1.6947 
 120   0.0000       0.066352         1.8055 
 121   0.0000       0.070042         1.9059 
 122   0.0000       0.075189         2.0460 
 123   0.0000       0.078012         2.1228 
 124   0.0000       0.080348         2.1864 
 125   0.0000       0.081863         2.2276 
 126   0.0000       0.091960         2.5024 
 127   0.0000       0.092737         2.5235 
 128   0.0000       0.097155         2.6437 
 129   0.0000       0.099798         2.7156 
 130   0.0000       0.101778         2.7695 
 131   0.0000       0.116933         3.1819 
 132   0.0000       0.138553         3.7702 
 133   0.0000       0.140275         3.8171 
 134   0.0000       0.150884         4.1058 
 135   0.0000       0.163937         4.4610 
 136   0.0000       0.174343         4.7441 
 137   0.0000       0.187074         5.0905 
 138   0.0000       0.222901         6.0655 
 139   0.0000       0.236446         6.4340 
 140   0.0000       0.254507         6.9255 
 141   0.0000       0.274761         7.4766 
 142   0.0000       0.277314         7.5461 
 143   0.0000       0.332988         9.0611 
 144   0.0000       0.361623         9.8403 
 145   0.0000       0.370406        10.0793 
 146   0.0000       0.378065        10.2877 
 147   0.0000       0.392279        10.6744 
 148   0.0000       0.395191        10.7537 
 149   0.0000       0.402499        10.9526 
 150   0.0000       0.414314        11.2740 
 151   0.0000       0.434749        11.8301 
 152   0.0000       0.436293        11.8721 
 153   0.0000       0.445047        12.1104 
 154   0.0000       0.459878        12.5139 
 155   0.0000       0.461239        12.5509 
 156   0.0000       0.470683        12.8079 
 157   0.0000       0.474229        12.9044 
 158   0.0000       0.481802        13.1105 
 159   0.0000       0.484500        13.1839 
 160   0.0000       0.486222        13.2308 
 161   0.0000       0.499203        13.5840 
 162   0.0000       0.512353        13.9418 
 163   0.0000       0.518831        14.1181 
 164   0.0000       0.537772        14.6335 
 165   0.0000       0.544574        14.8186 
 166   0.0000       0.558685        15.2026 
 167   0.0000       0.564851        15.3704 
 168   0.0000       0.571912        15.5625 
 169   0.0000       0.574968        15.6457 
 170   0.0000       0.585411        15.9298 
 171   0.0000       0.598688        16.2911 
 172   0.0000       0.613875        16.7044 
 173   0.0000       0.614493        16.7212 
 174   0.0000       0.633513        17.2388 
 175   0.0000       0.640056        17.4168 
 176   0.0000       0.652178        17.7467 
 177   0.0000       0.660370        17.9696 
 178   0.0000       0.663733        18.0611 
 179   0.0000       0.683289        18.5932 
 180   0.0000       0.687341        18.7035 
 181   0.0000       0.695996        18.9390 
 182   0.0000       0.697753        18.9868 
 183   0.0000       0.705734        19.2040 
 184   0.0000       0.713105        19.4046 
 185   0.0000       0.722895        19.6710 
 186   0.0000       0.729987        19.8639 
 187   0.0000       0.735295        20.0084 
 188   0.0000       0.739159        20.1135 
 189   0.0000       0.761244        20.7145 
 190   0.0000       0.771233        20.9863 
 191   0.0000       0.784243        21.3403 
 192   0.0000       0.789797        21.4915 
 193   0.0000       0.799392        21.7525 
 194   0.0000       0.806239        21.9389 
 195   0.0000       0.825620        22.4663 
 196   0.0000       0.827387        22.5144 
 197   0.0000       0.834188        22.6994 
 198   0.0000       0.841308        22.8932 
 199   0.0000       0.843716        22.9587 
 200   0.0000       0.845647        23.0112 
 201   0.0000       0.851834        23.1796 
 202   0.0000       0.858036        23.3484 
 203   0.0000       0.860335        23.4109 
 204   0.0000       0.861564        23.4443 
 205   0.0000       0.872519        23.7424 
 206   0.0000       0.882420        24.0119 
 207   0.0000       0.884978        24.0815 
 208   0.0000       0.895450        24.3664 
 209   0.0000       0.914268        24.8785 
 210   0.0000       0.917906        24.9775 
 211   0.0000       0.924169        25.1479 
 212   0.0000       0.934171        25.4201 
 213   0.0000       0.938492        25.5377 
 214   0.0000       0.946736        25.7620 
 215   0.0000       0.971073        26.4243 
 216   0.0000       0.976747        26.5786 
 217   0.0000       0.998134        27.1606 
 218   0.0000       1.008304        27.4373 
 219   0.0000       1.016928        27.6720 
 220   0.0000       1.023903        27.8618 
 221   0.0000       1.037755        28.2387 
 222   0.0000       1.040683        28.3184 
 223   0.0000       1.053377        28.6638 
 224   0.0000       1.064856        28.9762 
 225   0.0000       1.110240        30.2112 
 226   0.0000       1.129337        30.7308 
 227   0.0000       1.139062        30.9955 
 228   0.0000       1.147836        31.2342 
 229   0.0000       1.170947        31.8631 
 230   0.0000       1.176216        32.0065 
 231   0.0000       1.211176        32.9578 
 232   0.0000       1.223214        33.2853 
 233   0.0000       1.241380        33.7797 
 234   0.0000       1.257084        34.2070 
 235   0.0000       1.301665        35.4201 
 236   0.0000       1.304345        35.4930 
 237   0.0000       1.332917        36.2705 
 238   0.0000       1.339971        36.4625 
 239   0.0000       1.356054        36.9001 
 240   0.0000       1.385903        37.7123 
 241   0.0000       1.422228        38.7008 
 242   0.0000       1.426807        38.8254 
 243   0.0000       1.444978        39.3199 
 244   0.0000       1.469583        39.9894 
 245   0.0000       1.521873        41.4123 
 246   0.0000       1.542575        41.9756 
 247   0.0000       1.624739        44.2114 
 248   0.0000       1.632113        44.4121 
 249   0.0000       1.746013        47.5114 
 250   0.0000       1.755791        47.7775 
 251   0.0000       1.817990        49.4700 
 252   0.0000       1.924724        52.3744 
 253   0.0000       1.941504        52.8310 
 254   0.0000       1.961788        53.3830 
 255   0.0000       2.027287        55.1653 
 256   0.0000       2.040813        55.5333 
 257   0.0000       2.154089        58.6157 
 258   0.0000       3.763149       102.4005 
 259   0.0000       4.951661       134.7416 
 260   0.0000       5.045195       137.2867 
 261   0.0000       5.075298       138.1059 
 262   0.0000       5.241434       142.6267 
 263   0.0000       5.257415       143.0615 
 264   0.0000       5.876597       159.9103 
 265   0.0000       5.877818       159.9436 
 266   0.0000       5.888114       160.2237 
 267   0.0000       5.915387       160.9659 
 268   0.0000       5.934379       161.4827 
 269   0.0000       5.937340       161.5632 
 270   0.0000       5.946545       161.8137 
 271   0.0000       9.316476       253.5142 
 272   0.0000       9.402643       255.8589 
 273   0.0000       9.520813       259.0745 
 274   0.0000      25.824606       702.7233 
 275   0.0000     167.563544      4559.6358 
 276   0.0000     216.308198      5886.0453 
 277   0.0000     216.359834      5887.4504 
 278   0.0000     216.436943      5889.5486 
 279   0.0000     722.010844     19646.9139 
 280   0.0000    2454.318055     66785.3896 
 281   0.0000    8071.671146    219641.3382 
 282   0.0000   28473.784531    774811.0677 
 283   0.0000   117240.746128   3190282.8930 
 284   0.0000   597780.931420   16266446.1141 
 285   0.0000   2211674.676462   60182727.5773 
 286   0.0000   6563629.366604   178605435.1902 
 287   0.0000   18768449.084449   510715463.8603 

                 SPIN DOWN ORBITALS
  NO   OCC          E(Eh)            E(eV) 
   0   1.0000    -256.207536     -6971.7615 
   1   1.0000     -30.150101      -820.4259 
   2   1.0000     -26.015745      -707.9244 
   3   1.0000     -26.014712      -707.8963 
   4   1.0000     -26.010052      -707.7695 
   5   1.0000     -14.595863      -397.1736 
   6   1.0000     -14.593807      -397.1177 
   7   1.0000     -14.516235      -395.0068 
   8   1.0000     -14.513582      -394.9346 
   9   1.0000     -14.509846      -394.8330 
  10   1.0000     -14.508404      -394.7937 
  11   1.0000     -14.490953      -394.3189 
  12   1.0000     -14.487456      -394.2237 
  13   1.0000     -14.464559      -393.6007 
  14   1.0000     -14.462536      -393.5456 
  15   1.0000     -10.358356      -281.8652 
  16   1.0000     -10.358158      -281.8598 
  17   1.0000     -10.357749      -281.8487 
  18   1.0000     -10.357667      -281.8464 
  19   1.0000     -10.352202      -281.6977 
  20   1.0000     -10.352152      -281.6964 
  21   1.0000     -10.351426      -281.6766 
  22   1.0000     -10.349350      -281.6201 
  23   1.0000     -10.323959      -280.9292 
  24   1.0000     -10.322252      -280.8827 
  25   1.0000      -3.558250       -96.8249 
  26   1.0000      -2.328966       -63.3744 
  27   1.0000      -2.327227       -63.3271 
  28   1.0000      -2.325734       -63.2864 
  29   1.0000      -1.243420       -33.8352 
  30   1.0000      -1.240755       -33.7627 
  31   1.0000      -1.100622       -29.9494 
  32   1.0000      -1.089953       -29.6591 
  33   1.0000      -1.075926       -29.2774 
  34   1.0000      -1.074058       -29.2266 
  35   1.0000      -1.072618       -29.1874 
  36   1.0000      -1.062114       -28.9016 
  37   1.0000      -0.944532       -25.7020 
  38   1.0000      -0.912957       -24.8428 
  39   1.0000      -0.899037       -24.4640 
  40   1.0000      -0.856182       -23.2979 
  41   1.0000      -0.817283       -22.2394 
  42   1.0000      -0.796440       -21.6722 
  43   1.0000      -0.771770       -21.0009 
  44   1.0000      -0.766654       -20.8617 
  45   1.0000      -0.747631       -20.3441 
  46   1.0000      -0.739191       -20.1144 
  47   1.0000      -0.671825       -18.2813 
  48   1.0000      -0.661160       -17.9911 
  49   1.0000      -0.652803       -17.7637 
  50   1.0000      -0.651907       -17.7393 
  51   1.0000      -0.643376       -17.5072 
  52   1.0000      -0.627688       -17.0803 
  53   1.0000      -0.623863       -16.9762 
  54   1.0000      -0.617601       -16.8058 
  55   1.0000      -0.611455       -16.6385 
  56   1.0000      -0.609854       -16.5950 
  57   1.0000      -0.604252       -16.4425 
  58   1.0000      -0.600447       -16.3390 
  59   1.0000      -0.595804       -16.2127 
  60   1.0000      -0.594988       -16.1905 
  61   1.0000      -0.590449       -16.0669 
  62   1.0000      -0.580517       -15.7967 
  63   1.0000      -0.569290       -15.4912 
  64   1.0000      -0.560160       -15.2427 
  65   1.0000      -0.556706       -15.1487 
  66   1.0000      -0.555006       -15.1025 
  67   1.0000      -0.534745       -14.5511 
  68   1.0000      -0.533242       -14.5103 
  69   1.0000      -0.518570       -14.1110 
  70   1.0000      -0.514573       -14.0022 
  71   1.0000      -0.514205       -13.9922 
  72   1.0000      -0.512653       -13.9500 
  73   1.0000      -0.499153       -13.5826 
  74   1.0000      -0.498291       -13.5592 
  75   1.0000      -0.496024       -13.4975 
  76   1.0000      -0.487538       -13.2666 
  77   1.0000      -0.484207       -13.1759 
  78   1.0000      -0.482318       -13.1245 
  79   1.0000      -0.466676       -12.6989 
  80   1.0000      -0.448684       -12.2093 
  81   1.0000      -0.438586       -11.9345 
  82   1.0000      -0.430016       -11.7013 
  83   1.0000      -0.399443       -10.8694 
  84   1.0000      -0.376643       -10.2490 
  85   1.0000      -0.360430        -9.8078 
  86   1.0000      -0.353859        -9.6290 
  87   1.0000      -0.350309        -9.5324 
  88   1.0000      -0.339673        -9.2430 
  89   0.0000      -0.209351        -5.6967 
  90   0.0000      -0.170872        -4.6497 
  91   0.0000      -0.143510        -3.9051 
  92   0.0000      -0.102315        -2.7841 
  93   0.0000      -0.090586        -2.4650 
  94   0.0000      -0.084197        -2.2911 
  95   0.0000      -0.076754        -2.0886 
  96   0.0000      -0.068809        -1.8724 
  97   0.0000      -0.062001        -1.6871 
  98   0.0000      -0.058618        -1.5951 
  99   0.0000      -0.044354        -1.2069 
 100   0.0000      -0.033879        -0.9219 
 101   0.0000      -0.023095        -0.6285 
 102   0.0000      -0.014826        -0.4034 
 103   0.0000      -0.003161        -0.0860 
 104   0.0000      -0.001887        -0.0514 
 105   0.0000      -0.000552        -0.0150 
 106   0.0000       0.004373         0.1190 
 107   0.0000       0.007310         0.1989 
 108   0.0000       0.014820         0.4033 
 109   0.0000       0.018592         0.5059 
 110   0.0000       0.022615         0.6154 
 111   0.0000       0.024585         0.6690 
 112   0.0000       0.033011         0.8983 
 113   0.0000       0.037673         1.0251 
 114   0.0000       0.040865         1.1120 
 115   0.0000       0.046938         1.2773 
 116   0.0000       0.047529         1.2933 
 117   0.0000       0.053668         1.4604 
 118   0.0000       0.055422         1.5081 
 119   0.0000       0.062340         1.6964 
 120   0.0000       0.066364         1.8058 
 121   0.0000       0.070033         1.9057 
 122   0.0000       0.075205         2.0464 
 123   0.0000       0.078086         2.1248 
 124   0.0000       0.080634         2.1942 
 125   0.0000       0.081900         2.2286 
 126   0.0000       0.091862         2.4997 
 127   0.0000       0.092596         2.5197 
 128   0.0000       0.097201         2.6450 
 129   0.0000       0.100414         2.7324 
 130   0.0000       0.101997         2.7755 
 131   0.0000       0.116909         3.1813 
 132   0.0000       0.138925         3.7803 
 133   0.0000       0.140829         3.8321 
 134   0.0000       0.150957         4.1077 
 135   0.0000       0.164299         4.4708 
 136   0.0000       0.174503         4.7485 
 137   0.0000       0.187977         5.1151 
 138   0.0000       0.223222         6.0742 
 139   0.0000       0.238138         6.4801 
 140   0.0000       0.259934         7.0732 
 141   0.0000       0.276486         7.5236 
 142   0.0000       0.280282         7.6269 
 143   0.0000       0.334418         9.1000 
 144   0.0000       0.362418         9.8619 
 145   0.0000       0.370421        10.0797 
 146   0.0000       0.379189        10.3182 
 147   0.0000       0.394554        10.7363 
 148   0.0000       0.395783        10.7698 
 149   0.0000       0.403342        10.9755 
 150   0.0000       0.414426        11.2771 
 151   0.0000       0.435659        11.8549 
 152   0.0000       0.436938        11.8897 
 153   0.0000       0.445297        12.1171 
 154   0.0000       0.459956        12.5160 
 155   0.0000       0.461189        12.5496 
 156   0.0000       0.470621        12.8062 
 157   0.0000       0.474172        12.9029 
 158   0.0000       0.482140        13.1197 
 159   0.0000       0.484858        13.1937 
 160   0.0000       0.486432        13.2365 
 161   0.0000       0.499522        13.5927 
 162   0.0000       0.512644        13.9497 
 163   0.0000       0.519088        14.1251 
 164   0.0000       0.537965        14.6388 
 165   0.0000       0.544948        14.8288 
 166   0.0000       0.558769        15.2049 
 167   0.0000       0.566352        15.4112 
 168   0.0000       0.573218        15.5981 
 169   0.0000       0.575798        15.6683 
 170   0.0000       0.585917        15.9436 
 171   0.0000       0.599302        16.3078 
 172   0.0000       0.614958        16.7339 
 173   0.0000       0.617333        16.7985 
 174   0.0000       0.634159        17.2563 
 175   0.0000       0.640853        17.4385 
 176   0.0000       0.654434        17.8081 
 177   0.0000       0.661449        17.9990 
 178   0.0000       0.665887        18.1197 
 179   0.0000       0.685053        18.6413 
 180   0.0000       0.688435        18.7333 
 181   0.0000       0.696222        18.9452 
 182   0.0000       0.699002        19.0208 
 183   0.0000       0.707106        19.2413 
 184   0.0000       0.714594        19.4451 
 185   0.0000       0.723802        19.6957 
 186   0.0000       0.731034        19.8924 
 187   0.0000       0.735598        20.0166 
 188   0.0000       0.741105        20.1665 
 189   0.0000       0.761950        20.7337 
 190   0.0000       0.772446        21.0193 
 191   0.0000       0.785229        21.3672 
 192   0.0000       0.790939        21.5225 
 193   0.0000       0.799414        21.7532 
 194   0.0000       0.806845        21.9554 
 195   0.0000       0.825565        22.4648 
 196   0.0000       0.827371        22.5139 
 197   0.0000       0.834323        22.7031 
 198   0.0000       0.841350        22.8943 
 199   0.0000       0.843768        22.9601 
 200   0.0000       0.846157        23.0251 
 201   0.0000       0.852030        23.1849 
 202   0.0000       0.858353        23.3570 
 203   0.0000       0.860601        23.4182 
 204   0.0000       0.861691        23.4478 
 205   0.0000       0.872758        23.7490 
 206   0.0000       0.882821        24.0228 
 207   0.0000       0.885333        24.0911 
 208   0.0000       0.895923        24.3793 
 209   0.0000       0.914522        24.8854 
 210   0.0000       0.918099        24.9827 
 211   0.0000       0.924524        25.1576 
 212   0.0000       0.934732        25.4353 
 213   0.0000       0.939080        25.5537 
 214   0.0000       0.947415        25.7805 
 215   0.0000       0.971785        26.4436 
 216   0.0000       0.977606        26.6020 
 217   0.0000       0.998728        27.1768 
 218   0.0000       1.008685        27.4477 
 219   0.0000       1.017326        27.6829 
 220   0.0000       1.024603        27.8809 
 221   0.0000       1.037991        28.2452 
 222   0.0000       1.044762        28.4294 
 223   0.0000       1.059315        28.8254 
 224   0.0000       1.065992        29.0071 
 225   0.0000       1.114468        30.3262 
 226   0.0000       1.129812        30.7438 
 227   0.0000       1.139978        31.0204 
 228   0.0000       1.149734        31.2859 
 229   0.0000       1.175546        31.9882 
 230   0.0000       1.182577        32.1796 
 231   0.0000       1.214356        33.0443 
 232   0.0000       1.227814        33.4105 
 233   0.0000       1.245846        33.9012 
 234   0.0000       1.259246        34.2658 
 235   0.0000       1.304132        35.4872 
 236   0.0000       1.308430        35.6042 
 237   0.0000       1.335074        36.3292 
 238   0.0000       1.342219        36.5236 
 239   0.0000       1.359255        36.9872 
 240   0.0000       1.390117        37.8270 
 241   0.0000       1.422295        38.7026 
 242   0.0000       1.430693        38.9311 
 243   0.0000       1.446961        39.3738 
 244   0.0000       1.469818        39.9958 
 245   0.0000       1.522015        41.4161 
 246   0.0000       1.544065        42.0162 
 247   0.0000       1.624860        44.2147 
 248   0.0000       1.634643        44.4809 
 249   0.0000       1.748162        47.5699 
 250   0.0000       1.756219        47.7891 
 251   0.0000       1.822060        49.5808 
 252   0.0000       1.931784        52.5665 
 253   0.0000       1.944776        52.9200 
 254   0.0000       1.966913        53.5224 
 255   0.0000       2.028908        55.2094 
 256   0.0000       2.059177        56.0330 
 257   0.0000       2.162295        58.8390 
 258   0.0000       3.788543       103.0915 
 259   0.0000       5.035020       137.0099 
 260   0.0000       5.062518       137.7581 
 261   0.0000       5.093290       138.5955 
 262   0.0000       5.261238       143.1656 
 263   0.0000       5.277734       143.6144 
 264   0.0000       5.934012       161.4727 
 265   0.0000       5.945160       161.7760 
 266   0.0000       5.949498       161.8941 
 267   0.0000       5.953605       162.0058 
 268   0.0000       5.954807       162.0385 
 269   0.0000       5.967181       162.3752 
 270   0.0000       5.983417       162.8170 
 271   0.0000       9.355922       254.5876 
 272   0.0000       9.440648       256.8931 
 273   0.0000       9.537984       259.5417 
 274   0.0000      25.853081       703.4981 
 275   0.0000     167.572193      4559.8712 
 276   0.0000     216.312483      5886.1619 
 277   0.0000     216.363974      5887.5630 
 278   0.0000     216.438843      5889.6003 
 279   0.0000     722.012744     19646.9656 
 280   0.0000    2454.318463     66785.4007 
 281   0.0000    8071.671195    219641.3396 
 282   0.0000   28473.784483    774811.0664 
 283   0.0000   117240.746065   3190282.8913 
 284   0.0000   597780.931391   16266446.1133 
 285   0.0000   2211674.676468   60182727.5774 
 286   0.0000   6563629.366661   178605435.1917 
 287   0.0000   18768449.084555   510715463.8632 

                    ********************************
                    * MULLIKEN POPULATION ANALYSIS *
                    ********************************

--------------------------------------------
MULLIKEN ATOMIC CHARGES AND SPIN POPULATIONS
--------------------------------------------
   0 Fe:    0.837799    0.994959
   1 N :   -0.680791   -0.022175
   2 H :    0.368073    0.002939
   3 N :   -0.683108   -0.022434
   4 H :    0.392007    0.002527
   5 N :   -0.372722   -0.012618
   6 N :    0.038197   -0.013832
   7 N :   -0.153684    0.069101
   8 C :   -0.123917    0.000154
   9 H :    0.220238   -0.000055
  10 H :    0.190215   -0.001219
  11 C :   -0.105683    0.001152
  12 H :    0.174854   -0.000899
  13 H :    0.213578   -0.000033
  14 C :   -0.288946   -0.000440
  15 H :    0.168650    0.000187
  16 H :    0.189446    0.000090
  17 C :   -0.106098    0.001106
  18 H :    0.198389   -0.000153
  19 H :    0.177038   -0.001015
  20 C :   -0.135099    0.000147
  21 H :    0.191816   -0.001257
  22 H :    0.208264    0.000019
  23 C :   -0.133547    0.000079
  24 N :   -0.683163   -0.022395
  25 N :   -0.683815   -0.021450
  26 H :    0.364959    0.001740
  27 C :   -0.122448    0.000174
  28 H :    0.219438   -0.000082
  29 H :    0.191199   -0.001186
  30 N :   -0.372993   -0.014605
  31 N :    0.046968   -0.013740
  32 N :   -0.152155    0.073677
  33 C :   -0.109792    0.001315
  34 H :    0.178079   -0.000800
  35 H :    0.208961   -0.000018
  36 C :   -0.288271   -0.000437
  37 H :    0.168903    0.000149
  38 H :    0.191645    0.000087
  39 C :   -0.112047    0.001054
  40 H :    0.391528    0.002649
  41 H :    0.199208   -0.000044
  42 H :    0.191578   -0.001235
  43 H :    0.208715   -0.000173
  44 H :    0.178535   -0.001013
Sum of atomic charges         :    1.0000000
Sum of atomic spin populations:    1.0000000

-----------------------------------------------------
MULLIKEN REDUCED ORBITAL CHARGES AND SPIN POPULATIONS
-----------------------------------------------------
CHARGE
  0 Fes       :     6.402422  s :     6.402422
      pz      :     4.203478  p :    12.489969
      px      :     4.154369
      py      :     4.132122
      dz2     :     1.591646  d :     6.269378
      dxz     :     1.379781
      dyz     :     0.685019
      dx2y2   :     0.794140
      dxy     :     1.818792
      f0      :     0.000041  f :     0.000432
      f+1     :     0.000050
      f-1     :     0.000085
      f+2     :     0.000115
      f-2     :     0.000041
      f+3     :     0.000069
      f-3     :     0.000031
  1 N s       :     3.723977  s :     3.723977
      pz      :     1.204053  p :     3.956814
      px      :     1.562482
      py      :     1.190279
  2 H s       :     0.631927  s :     0.631927
  3 N s       :     3.722891  s :     3.722891
      pz      :     1.455796  p :     3.960217
      px      :     1.163222
      py      :     1.341199
  4 H s       :     0.607993  s :     0.607993
  5 N s       :     3.778332  s :     3.778332
      pz      :     1.374150  p :     3.594390
      px      :     1.299188
      py      :     0.921052
  6 N s       :     3.392240  s :     3.392240
      pz      :     1.288049  p :     3.569562
      px      :     1.247658
      py      :     1.033855
  7 N s       :     3.956716  s :     3.956716
      pz      :     1.087752  p :     3.196968
      px      :     1.141373
      py      :     0.967843
  8 C s       :     3.291851  s :     3.291851
      pz      :     0.869410  p :     2.832066
      px      :     1.052483
      py      :     0.910173
  9 H s       :     0.779762  s :     0.779762
 10 H s       :     0.809785  s :     0.809785
 11 C s       :     3.285911  s :     3.285911
      pz      :     1.025700  p :     2.819772
      px      :     1.034974
      py      :     0.759098
 12 H s       :     0.825146  s :     0.825146
 13 H s       :     0.786422  s :     0.786422
 14 C s       :     3.317658  s :     3.317658
      pz      :     0.963698  p :     2.971288
      px      :     0.950198
      py      :     1.057392
 15 H s       :     0.831350  s :     0.831350
 16 H s       :     0.810554  s :     0.810554
 17 C s       :     3.284317  s :     3.284317
      pz      :     1.105497  p :     2.821782
      px      :     0.876441
      py      :     0.839843
 18 H s       :     0.801611  s :     0.801611
 19 H s       :     0.822962  s :     0.822962
 20 C s       :     3.296843  s :     3.296843
      pz      :     1.130974  p :     2.838256
      px      :     0.732458
      py      :     0.974824
 21 H s       :     0.808184  s :     0.808184
 22 H s       :     0.791736  s :     0.791736
 23 C s       :     3.297132  s :     3.297132
      pz      :     1.131875  p :     2.836415
      px      :     0.731134
      py      :     0.973406
 24 N s       :     3.722486  s :     3.722486
      pz      :     1.457319  p :     3.960676
      px      :     1.163699
      py      :     1.339659
 25 N s       :     3.725401  s :     3.725401
      pz      :     1.207141  p :     3.958414
      px      :     1.561458
      py      :     1.189815
 26 H s       :     0.635041  s :     0.635041
 27 C s       :     3.291169  s :     3.291169
      pz      :     0.864331  p :     2.831279
      px      :     1.052802
      py      :     0.914146
 28 H s       :     0.780562  s :     0.780562
 29 H s       :     0.808801  s :     0.808801
 30 N s       :     3.806620  s :     3.806620
      pz      :     1.365352  p :     3.566373
      px      :     1.128138
      py      :     1.072883
 31 N s       :     3.390699  s :     3.390699
      pz      :     1.288360  p :     3.562334
      px      :     1.157470
      py      :     1.116504
 32 N s       :     3.959564  s :     3.959564
      pz      :     1.092467  p :     3.192591
      px      :     1.059954
      py      :     1.040170
 33 C s       :     3.287754  s :     3.287754
      pz      :     1.022382  p :     2.822038
      px      :     1.040539
      py      :     0.759117
 34 H s       :     0.821921  s :     0.821921
 35 H s       :     0.791039  s :     0.791039
 36 C s       :     3.317457  s :     3.317457
      pz      :     0.960219  p :     2.970815
      px      :     0.951464
      py      :     1.059132
 37 H s       :     0.831097  s :     0.831097
 38 H s       :     0.808355  s :     0.808355
 39 C s       :     3.285952  s :     3.285952
      pz      :     1.113795  p :     2.826094
      px      :     0.871706
      py      :     0.840594
 40 H s       :     0.608472  s :     0.608472
 41 H s       :     0.800792  s :     0.800792
 42 H s       :     0.808422  s :     0.808422
 43 H s       :     0.791285  s :     0.791285
 44 H s       :     0.821465  s :     0.821465

SPIN
  0 Fes       :     0.013049  s :     0.013049
      pz      :     0.003534  p :     0.010522
      px      :     0.003031
      py      :     0.003956
      dz2     :     0.105143  d :     0.971363
      dxz     :     0.386280
      dyz     :     0.119941
      dx2y2   :     0.277991
      dxy     :     0.082009
      f0      :    -0.000000  f :     0.000025
      f+1     :     0.000002
      f-1     :     0.000003
      f+2     :     0.000021
      f-2     :    -0.000000
      f+3     :     0.000005
      f-3     :    -0.000005
  1 N s       :    -0.003127  s :    -0.003127
      pz      :    -0.002077  p :    -0.019048
      px      :    -0.015643
      py      :    -0.001328
  2 H s       :     0.002939  s :     0.002939
  3 N s       :    -0.003003  s :    -0.003003
      pz      :    -0.010442  p :    -0.019431
      px      :    -0.001389
      py      :    -0.007600
  4 H s       :     0.002527  s :     0.002527
  5 N s       :    -0.002443  s :    -0.002443
      pz      :    -0.013431  p :    -0.010175
      px      :     0.006847
      py      :    -0.003591
  6 N s       :    -0.001972  s :    -0.001972
      pz      :    -0.000073  p :    -0.011860
      px      :    -0.006380
      py      :    -0.005407
  7 N s       :     0.006725  s :     0.006725
      pz      :    -0.006142  p :     0.062376
      px      :     0.056342
      py      :     0.012176
  8 C s       :     0.000155  s :     0.000155
      pz      :    -0.000022  p :    -0.000002
      px      :     0.000118
      py      :    -0.000097
  9 H s       :    -0.000055  s :    -0.000055
 10 H s       :    -0.001219  s :    -0.001219
 11 C s       :     0.000210  s :     0.000210
      pz      :    -0.000026  p :     0.000942
      px      :    -0.000297
      py      :     0.001265
 12 H s       :    -0.000899  s :    -0.000899
 13 H s       :    -0.000033  s :    -0.000033
 14 C s       :    -0.000071  s :    -0.000071
      pz      :    -0.000097  p :    -0.000369
      px      :    -0.000176
      py      :    -0.000096
 15 H s       :     0.000187  s :     0.000187
 16 H s       :     0.000090  s :     0.000090
 17 C s       :     0.000241  s :     0.000241
      pz      :     0.000097  p :     0.000865
      px      :     0.000407
      py      :     0.000361
 18 H s       :    -0.000153  s :    -0.000153
 19 H s       :    -0.001015  s :    -0.001015
 20 C s       :     0.000129  s :     0.000129
      pz      :     0.000036  p :     0.000018
      px      :    -0.000020
      py      :     0.000002
 21 H s       :    -0.001257  s :    -0.001257
 22 H s       :     0.000019  s :     0.000019
 23 C s       :     0.000110  s :     0.000110
      pz      :     0.000037  p :    -0.000030
      px      :    -0.000063
      py      :    -0.000005
 24 N s       :    -0.003010  s :    -0.003010
      pz      :    -0.010456  p :    -0.019385
      px      :    -0.001366
      py      :    -0.007562
 25 N s       :    -0.003001  s :    -0.003001
      pz      :    -0.001950  p :    -0.018448
      px      :    -0.015211
      py      :    -0.001287
 26 H s       :     0.001740  s :     0.001740
 27 C s       :     0.000174  s :     0.000174
      pz      :     0.000011  p :    -0.000000
      px      :     0.000088
      py      :    -0.000099
 28 H s       :    -0.000082  s :    -0.000082
 29 H s       :    -0.001186  s :    -0.001186
 30 N s       :    -0.002795  s :    -0.002795
      pz      :    -0.015362  p :    -0.011810
      px      :    -0.000713
      py      :     0.004266
 31 N s       :    -0.001997  s :    -0.001997
      pz      :    -0.000357  p :    -0.011743
      px      :    -0.006934
      py      :    -0.004452
 32 N s       :     0.007098  s :     0.007098
      pz      :    -0.004332  p :     0.066579
      px      :     0.034125
      py      :     0.036786
 33 C s       :     0.000216  s :     0.000216
      pz      :    -0.000002  p :     0.001099
      px      :    -0.000282
      py      :     0.001384
 34 H s       :    -0.000800  s :    -0.000800
 35 H s       :    -0.000018  s :    -0.000018
 36 C s       :    -0.000070  s :    -0.000070
      pz      :    -0.000100  p :    -0.000367
      px      :    -0.000180
      py      :    -0.000087
 37 H s       :     0.000149  s :     0.000149
 38 H s       :     0.000087  s :     0.000087
 39 C s       :     0.000235  s :     0.000235
      pz      :     0.000088  p :     0.000818
      px      :     0.000402
      py      :     0.000328
 40 H s       :     0.002649  s :     0.002649
 41 H s       :    -0.000044  s :    -0.000044
 42 H s       :    -0.001235  s :    -0.001235
 43 H s       :    -0.000173  s :    -0.000173
 44 H s       :    -0.001013  s :    -0.001013


                     *******************************
                     * LOEWDIN POPULATION ANALYSIS *
                     *******************************

-------------------------------------------
LOEWDIN ATOMIC CHARGES AND SPIN POPULATIONS
-------------------------------------------
   0 Fe:   -0.358245    0.969991
   1 N :   -0.149396   -0.017426
   2 H :    0.251639    0.002026
   3 N :   -0.157546   -0.017811
   4 H :    0.261623    0.001615
   5 N :   -0.263094   -0.003611
   6 N :    0.096729   -0.009238
   7 N :   -0.126926    0.061645
   8 C :   -0.100010   -0.000334
   9 H :    0.149617   -0.000032
  10 H :    0.132505   -0.000972
  11 C :   -0.093691    0.000816
  12 H :    0.121604   -0.000810
  13 H :    0.147163   -0.000158
  14 C :   -0.202029   -0.000368
  15 H :    0.126572    0.000123
  16 H :    0.143630    0.000081
  17 C :   -0.092368    0.000693
  18 H :    0.137867   -0.000161
  19 H :    0.122832   -0.000924
  20 C :   -0.103186   -0.000343
  21 H :    0.133427   -0.000995
  22 H :    0.141016    0.000005
  23 C :   -0.102259   -0.000388
  24 N :   -0.158265   -0.017854
  25 N :   -0.150770   -0.016926
  26 H :    0.249611    0.001333
  27 C :   -0.099412   -0.000380
  28 H :    0.149091   -0.000035
  29 H :    0.133178   -0.000938
  30 N :   -0.255393   -0.005060
  31 N :    0.092832   -0.009416
  32 N :   -0.123135    0.065816
  33 C :   -0.093279    0.000933
  34 H :    0.123180   -0.000724
  35 H :    0.144778   -0.000151
  36 C :   -0.202156   -0.000355
  37 H :    0.126248    0.000093
  38 H :    0.144801    0.000078
  39 C :   -0.094975    0.000625
  40 H :    0.259894    0.001649
  41 H :    0.138153   -0.000108
  42 H :    0.133272   -0.000978
  43 H :    0.140985   -0.000098
  44 H :    0.123889   -0.000926

----------------------------------------------------
LOEWDIN REDUCED ORBITAL CHARGES AND SPIN POPULATIONS
----------------------------------------------------
CHARGE
  0 Fes       :     6.457475  s :     6.457475
      pz      :     4.472856  p :    13.357961
      px      :     4.441758
      py      :     4.443346
[...]
      pz      :     1.225980  p :     3.923151
      px      :     1.482975
      py      :     1.214196
  2 H s       :     0.748361  s :     0.748361
  3 N s       :     3.226330  s :     3.226330
      pz      :     1.406672  p :     3.931216
      px      :     1.199725
      py      :     1.324819
  4 H s       :     0.738377  s :     0.738377
  5 N s       :     3.338062  s :     3.338062
      pz      :     1.381838  p :     3.925033
      px      :     1.366544
      py      :     1.176651
  6 N s       :     3.109811  s :     3.109811
      pz      :     1.239426  p :     3.793460
      px      :     1.255177
      py      :     1.298856
  7 N s       :     3.539800  s :     3.539800
      pz      :     1.147264  p :     3.587126
      px      :     1.226430
      py      :     1.213433
  8 C s       :     2.955952  s :     2.955952
      pz      :     0.994147  p :     3.144058
      px      :     1.118495
      py      :     1.031416
  9 H s       :     0.850383  s :     0.850383
 10 H s       :     0.867495  s :     0.867495
 11 C s       :     2.956543  s :     2.956543
      pz      :     1.112299  p :     3.137148
      px      :     1.101778
      py      :     0.923071
 12 H s       :     0.878396  s :     0.878396
 13 H s       :     0.852837  s :     0.852837
 14 C s       :     2.955254  s :     2.955254
      pz      :     1.070775  p :     3.246775
      px      :     1.062188
      py      :     1.113812
 15 H s       :     0.873428  s :     0.873428
 16 H s       :     0.856370  s :     0.856370
 17 C s       :     2.955436  s :     2.955436
      pz      :     1.141534  p :     3.136932
      px      :     1.013480
      py      :     0.981918
 18 H s       :     0.862133  s :     0.862133
 19 H s       :     0.877168  s :     0.877168
 20 C s       :     2.955801  s :     2.955801
      pz      :     1.151708  p :     3.147385
      px      :     0.908721
      py      :     1.086956
 21 H s       :     0.866573  s :     0.866573
 22 H s       :     0.858984  s :     0.858984
 23 C s       :     2.956002  s :     2.956002
      pz      :     1.151944  p :     3.146257
      px      :     0.907739
      py      :     1.086575
 24 N s       :     3.226019  s :     3.226019
      pz      :     1.408863  p :     3.932246
      px      :     1.200420
      py      :     1.322964
 25 N s       :     3.226677  s :     3.226677
      pz      :     1.227211  p :     3.924094
      px      :     1.482465
      py      :     1.214418
 26 H s       :     0.750389  s :     0.750389
 27 C s       :     2.956119  s :     2.956119
      pz      :     0.989874  p :     3.143293
      px      :     1.119119
      py      :     1.034300
 28 H s       :     0.850909  s :     0.850909
 29 H s       :     0.866822  s :     0.866822
 30 N s       :     3.345891  s :     3.345891
      pz      :     1.377112  p :     3.909502
      px      :     1.288227
      py      :     1.244163
 31 N s       :     3.112080  s :     3.112080
      pz      :     1.240698  p :     3.795088
      px      :     1.275326
      py      :     1.279064
 32 N s       :     3.539120  s :     3.539120
      pz      :     1.153938  p :     3.584015
      px      :     1.212190
      py      :     1.217887
 33 C s       :     2.956723  s :     2.956723
      pz      :     1.110290  p :     3.136557
      px      :     1.103593
      py      :     0.922673
 34 H s       :     0.876820  s :     0.876820
 35 H s       :     0.855222  s :     0.855222
 36 C s       :     2.955259  s :     2.955259
      pz      :     1.069073  p :     3.246897
      px      :     1.063401
      py      :     1.114423
 37 H s       :     0.873752  s :     0.873752
 38 H s       :     0.855199  s :     0.855199
 39 C s       :     2.955161  s :     2.955161
      pz      :     1.145741  p :     3.139813
      px      :     1.010527
      py      :     0.983545
 40 H s       :     0.740106  s :     0.740106
 41 H s       :     0.861847  s :     0.861847
 42 H s       :     0.866728  s :     0.866728
 43 H s       :     0.859015  s :     0.859015
 44 H s       :     0.876111  s :     0.876111

SPIN
  0 Fes       :     0.004576  s :     0.004576
      pz      :     0.001935  p :     0.006472
      px      :     0.002128
      py      :     0.002410
      dz2     :     0.103683  d :     0.958919
      dxz     :     0.383016
      dyz     :     0.115987
      dx2y2   :     0.274453
      dxy     :     0.081779
      f0      :    -0.000001  f :     0.000025
      f+1     :     0.000002
      f-1     :     0.000003
      f+2     :     0.000021
      f-2     :    -0.000000
      f+3     :     0.000005
      f-3     :    -0.000005
  1 N s       :    -0.002385  s :    -0.002385
      pz      :    -0.001225  p :    -0.015042
      px      :    -0.013086
      py      :    -0.000730
  2 H s       :     0.002026  s :     0.002026
  3 N s       :    -0.002176  s :    -0.002176
      pz      :    -0.008938  p :    -0.015635
      px      :    -0.000699
      py      :    -0.005997
  4 H s       :     0.001615  s :     0.001615
  5 N s       :    -0.000675  s :    -0.000675
      pz      :    -0.010784  p :    -0.002936
      px      :     0.007131
      py      :     0.000717
  6 N s       :    -0.000742  s :    -0.000742
      pz      :    -0.000335  p :    -0.008496
      px      :    -0.005692
      py      :    -0.002469
  7 N s       :     0.001252  s :     0.001252
      pz      :    -0.006247  p :     0.060392
      px      :     0.054531
      py      :     0.012108
  8 C s       :    -0.000231  s :    -0.000231
      pz      :    -0.000007  p :    -0.000103
      px      :     0.000036
      py      :    -0.000132
  9 H s       :    -0.000032  s :    -0.000032
 10 H s       :    -0.000972  s :    -0.000972
 11 C s       :    -0.000053  s :    -0.000053
      pz      :    -0.000097  p :     0.000869
      px      :    -0.000088
      py      :     0.001054
 12 H s       :    -0.000810  s :    -0.000810
 13 H s       :    -0.000158  s :    -0.000158
 14 C s       :     0.000016  s :     0.000016
      pz      :    -0.000121  p :    -0.000384
      px      :    -0.000178
      py      :    -0.000086
 15 H s       :     0.000123  s :     0.000123
 16 H s       :     0.000081  s :     0.000081
 17 C s       :     0.000033  s :     0.000033
      pz      :     0.000109  p :     0.000660
      px      :     0.000248
      py      :     0.000303
 18 H s       :    -0.000161  s :    -0.000161
 19 H s       :    -0.000924  s :    -0.000924
 20 C s       :    -0.000248  s :    -0.000248
      pz      :    -0.000041  p :    -0.000095
      px      :    -0.000010
      py      :    -0.000044
 21 H s       :    -0.000995  s :    -0.000995
 22 H s       :     0.000005  s :     0.000005
 23 C s       :    -0.000266  s :    -0.000266
      pz      :    -0.000034  p :    -0.000122
      px      :    -0.000044
      py      :    -0.000045
 24 N s       :    -0.002206  s :    -0.002206
      pz      :    -0.008892  p :    -0.015648
      px      :    -0.000698
      py      :    -0.006058
 25 N s       :    -0.002382  s :    -0.002382
      pz      :    -0.001123  p :    -0.014544
      px      :    -0.012763
      py      :    -0.000658
 26 H s       :     0.001333  s :     0.001333
 27 C s       :    -0.000275  s :    -0.000275
      pz      :     0.000016  p :    -0.000105
      px      :     0.000026
      py      :    -0.000147
 28 H s       :    -0.000035  s :    -0.000035
 29 H s       :    -0.000938  s :    -0.000938
 30 N s       :    -0.000569  s :    -0.000569
      pz      :    -0.012290  p :    -0.004491
      px      :     0.003594
      py      :     0.004205
 31 N s       :    -0.000865  s :    -0.000865
      pz      :    -0.000542  p :    -0.008551
      px      :    -0.004428
      py      :    -0.003581
 32 N s       :     0.001339  s :     0.001339
      pz      :    -0.004576  p :     0.064476
      px      :     0.032942
      py      :     0.036111
 33 C s       :    -0.000037  s :    -0.000037
      pz      :    -0.000075  p :     0.000970
      px      :    -0.000059
      py      :     0.001105
 34 H s       :    -0.000724  s :    -0.000724
 35 H s       :    -0.000151  s :    -0.000151
 36 C s       :     0.000010  s :     0.000010
      pz      :    -0.000112  p :    -0.000365
      px      :    -0.000173
      py      :    -0.000080
 37 H s       :     0.000093  s :     0.000093
 38 H s       :     0.000078  s :     0.000078
 39 C s       :     0.000080  s :     0.000080
      pz      :     0.000069  p :     0.000545
      px      :     0.000276
      py      :     0.000201
 40 H s       :     0.001649  s :     0.001649
 41 H s       :    -0.000108  s :    -0.000108
 42 H s       :    -0.000978  s :    -0.000978
 43 H s       :    -0.000098  s :    -0.000098
 44 H s       :    -0.000926  s :    -0.000926


                      *****************************
                      * MAYER POPULATION ANALYSIS *
                      *****************************

  NA   - Mulliken gross atomic population
  ZA   - Total nuclear charge
  QA   - Mulliken gross atomic charge
  VA   - Mayer's total valence
  BVA  - Mayer's bonded valence
  FA   - Mayer's free valence

  ATOM       NA         ZA         QA         VA         BVA        FA
  0 Fe    25.1622    26.0000     0.8378     4.5100     3.7495     0.7604
  1 N      7.6808     7.0000    -0.6808     2.8537     2.8534     0.0003
  2 H      0.6319     1.0000     0.3681     0.8143     0.8143     0.0000
  3 N      7.6831     7.0000    -0.6831     2.8401     2.8397     0.0004
  4 H      0.6080     1.0000     0.3920     0.8015     0.8015     0.0000
  5 N      7.3727     7.0000    -0.3727     2.6358     2.6351     0.0006
  6 N      6.9618     7.0000     0.0382     3.1143     3.1142     0.0001
  7 N      7.1537     7.0000    -0.1537     2.6417     2.6364     0.0054
  8 C      6.1239     6.0000    -0.1239     3.6027     3.6027     0.0000
  9 H      0.7798     1.0000     0.2202     0.9170     0.9170     0.0000
 10 H      0.8098     1.0000     0.1902     0.9210     0.9210     0.0000
 11 C      6.1057     6.0000    -0.1057     3.6221     3.6221     0.0000
 12 H      0.8251     1.0000     0.1749     0.9223     0.9223     0.0000
 13 H      0.7864     1.0000     0.2136     0.9226     0.9226     0.0000
 14 C      6.2889     6.0000    -0.2889     3.7356     3.7356     0.0000
 15 H      0.8314     1.0000     0.1686     0.9270     0.9270     0.0000
 16 H      0.8106     1.0000     0.1894     0.9243     0.9243     0.0000
 17 C      6.1061     6.0000    -0.1061     3.6432     3.6432     0.0000
 18 H      0.8016     1.0000     0.1984     0.9211     0.9211     0.0000
 19 H      0.8230     1.0000     0.1770     0.9210     0.9210     0.0000
 20 C      6.1351     6.0000    -0.1351     3.6089     3.6089     0.0000
 21 H      0.8082     1.0000     0.1918     0.9217     0.9217     0.0000
 22 H      0.7917     1.0000     0.2083     0.9250     0.9250     0.0000
 23 C      6.1335     6.0000    -0.1335     3.6078     3.6078     0.0000
 24 N      7.6832     7.0000    -0.6832     2.8411     2.8407     0.0004
 25 N      7.6838     7.0000    -0.6838     2.8560     2.8557     0.0003
 26 H      0.6350     1.0000     0.3650     0.8124     0.8124     0.0000
 27 C      6.1224     6.0000    -0.1224     3.6015     3.6015     0.0000
 28 H      0.7806     1.0000     0.2194     0.9183     0.9183     0.0000
 29 H      0.8088     1.0000     0.1912     0.9208     0.9208     0.0000
 30 N      7.3730     7.0000    -0.3730     2.6128     2.6122     0.0006
 31 N      6.9530     7.0000     0.0470     3.0876     3.0875     0.0001
 32 N      7.1522     7.0000    -0.1522     2.6380     2.6321     0.0059
 33 C      6.1098     6.0000    -0.1098     3.6266     3.6266     0.0000
 34 H      0.8219     1.0000     0.1781     0.9219     0.9219     0.0000
 35 H      0.7910     1.0000     0.2090     0.9224     0.9224     0.0000
 36 C      6.2883     6.0000    -0.2883     3.7322     3.7322     0.0000
 37 H      0.8311     1.0000     0.1689     0.9269     0.9269     0.0000
 38 H      0.8084     1.0000     0.1916     0.9237     0.9237     0.0000
 39 C      6.1120     6.0000    -0.1120     3.6375     3.6375     0.0000
 40 H      0.6085     1.0000     0.3915     0.8018     0.8018     0.0000
 41 H      0.8008     1.0000     0.1992     0.9246     0.9246     0.0000
 42 H      0.8084     1.0000     0.1916     0.9219     0.9219     0.0000
 43 H      0.7913     1.0000     0.2087     0.9235     0.9235     0.0000
 44 H      0.8215     1.0000     0.1785     0.9213     0.9213     0.0000

  Mayer bond orders larger than 0.100000
B(  0-Fe,  1-N ) :   0.4344 B(  0-Fe,  3-N ) :   0.4325 B(  0-Fe,  5-N ) :   0.6789 
B(  0-Fe,  7-N ) :   0.1086 B(  0-Fe, 24-N ) :   0.4405 B(  0-Fe, 25-N ) :   0.4304 
B(  0-Fe, 30-N ) :   0.6862 B(  0-Fe, 32-N ) :   0.1166 B(  1-N ,  2-H ) :   0.7864 
B(  1-N ,  8-C ) :   0.8229 B(  1-N , 11-C ) :   0.8158 B(  3-N ,  4-H ) :   0.7651 
B(  3-N , 17-C ) :   0.8214 B(  3-N , 20-C ) :   0.8293 B(  5-N ,  6-N ) :   1.2417 
B(  5-N ,  7-N ) :   0.6056 B(  6-N ,  7-N ) :   1.8595 B(  8-C ,  9-H ) :   0.9131 
B(  8-C , 10-H ) :   0.9227 B(  8-C , 23-C ) :   0.9435 B( 11-C , 12-H ) :   0.9255 
B( 11-C , 13-H ) :   0.9102 B( 11-C , 14-C ) :   0.9582 B( 14-C , 15-H ) :   0.9258 
B( 14-C , 16-H ) :   0.9270 B( 14-C , 17-C ) :   0.9610 B( 17-C , 18-H ) :   0.9210 
B( 17-C , 19-H ) :   0.9260 B( 20-C , 21-H ) :   0.9229 B( 20-C , 22-H ) :   0.9099 
B( 20-C , 27-C ) :   0.9445 B( 23-C , 24-N ) :   0.8267 B( 23-C , 42-H ) :   0.9230 
B( 23-C , 43-H ) :   0.9099 B( 24-N , 39-C ) :   0.8213 B( 24-N , 40-H ) :   0.7638 
B( 25-N , 26-H ) :   0.7907 B( 25-N , 27-C ) :   0.8213 B( 25-N , 33-C ) :   0.8166 
B( 27-C , 28-H ) :   0.9128 B( 27-C , 29-H ) :   0.9226 B( 30-N , 31-N ) :   1.2203 
B( 30-N , 32-N ) :   0.6057 B( 31-N , 32-N ) :   1.8508 B( 33-C , 34-H ) :   0.9253 
B( 33-C , 35-H ) :   0.9134 B( 33-C , 36-C ) :   0.9568 B( 36-C , 37-H ) :   0.9252 
B( 36-C , 38-H ) :   0.9264 B( 36-C , 39-C ) :   0.9600 B( 39-C , 41-H ) :   0.9182 
B( 39-C , 44-H ) :   0.9265 

-------
TIMINGS
-------

Total SCF time: 0 days 0 hours 3 min 35 sec 

Total time                  ....     215.459 sec
Sum of individual times     ....     214.562 sec  ( 99.6%)

Fock matrix formation       ....     205.721 sec  ( 95.5%)
  XC integration            ....      35.977 sec  ( 17.5% of F)
    Basis function eval.    ....      11.980 sec  ( 33.3% of XC)
    Density eval.           ....       9.545 sec  ( 26.5% of XC)
    XC-Functional eval.     ....       2.450 sec  (  6.8% of XC)
    XC-Potential eval.      ....       4.882 sec  ( 13.6% of XC)
Diagonalization             ....       3.034 sec  (  1.4%)
Density matrix formation    ....       0.242 sec  (  0.1%)
Population analysis         ....       0.034 sec  (  0.0%)
Initial guess               ....       0.597 sec  (  0.3%)
Orbital Transformation      ....       0.000 sec  (  0.0%)
Orbital Orthonormalization  ....       0.000 sec  (  0.0%)
DIIS solution               ....       1.089 sec  (  0.5%)
Grid generation             ....       3.846 sec  (  1.8%)

-------------------------   --------------------
FINAL SINGLE POINT ENERGY     -2205.601084226880
-------------------------   --------------------


                            ***************************************
                            *     ORCA property calculations      *
                            ***************************************

                                    ---------------------
                                    Active property flags
                                    ---------------------
   (+) Dipole Moment
   (+) Nuclear properties (Hyperfine,Quadrupole)


------------------------------------------------------------------------------
                       ORCA ELECTRIC PROPERTIES CALCULATION
------------------------------------------------------------------------------

Dipole Moment Calculation                       ... on
Quadrupole Moment Calculation                   ... off
Polarizability Calculation                      ... off
GBWName                                         ... fe3az.gbw
Electron density file                           ... fe3az.scfp
The origin for moment calculation is the CENTER OF MASS  = (-0.024820,  0.017078 -0.000673)

-------------
DIPOLE MOMENT
-------------
                                X             Y             Z
Electronic contribution:     -0.44659       0.29849      -0.02906
Nuclear contribution   :      0.60875      -0.42615       0.02012
                        -----------------------------------------
Total Dipole Moment    :      0.16216      -0.12767      -0.00894
                        -----------------------------------------
Magnitude (a.u.)       :      0.20658
Magnitude (Debye)      :      0.52508



--------------------
Rotational spectrum 
--------------------
 
Rotational constants in cm-1:     0.012267     0.010539     0.008992 
Rotational constants in MHz :   367.769099   315.955498   269.582638 

 Dipole components along the rotational axes: 
x,y,z [a.u.] :    -0.123595     0.165085    -0.012078 
x,y,z [Debye]:    -0.314152     0.419612    -0.030701 

 


           ************************************************************
           *        Program running with 16 parallel MPI-processes    *
           *              working on a common directory               *
           ************************************************************
------------------------------------------------------------------------------
                                ORCA EPR/NMR CALCULATION
------------------------------------------------------------------------------

GBWName                      ... fe3az.gbw
Electron density file        ... fe3az.scfp
Spin density file            ... fe3az.scfr
Multiplicity                 ... 2
g-tensor                     ... 0
NMR chemical shifts          ... 0
Number of nuclei for epr/nmr ... 1
   Nucleus:   0Fe
       Hyperfine : Isotope=   57 I=   0.500 P=  17.280
       Quadrupole: Isotope=   57 I=   0.500 Q=   0.160
       Spin-Orbit: Zeff=  13.910
       Ncuelar Spin-Spin: Gn=   0.000
       rho(0)=Y f(grad)=Y a(iso)=N a(dip)=N a(orb)=N sigma(nmr)=N spin-spin(nmr)=all-N,DSO-N,PSO-N,FC-N,SD-N

-----------------------------------------
ELECTRIC AND MAGNETIC HYPERFINE STRUCTURE
-----------------------------------------

 -----------------------------------------------------------
 Nucleus   0Fe: A:ISTP=   57 I=  0.5 P= 17.2798 MHz/au**3
                Q:ISTP=   57 I=  0.5 Q=  0.1600 barn     
 -----------------------------------------------------------
 Raw EFG matrix (all values in a.u.**-3):
             0.0072      -0.5193       0.5907
            -0.5193       0.0623       0.6935
             0.5907       0.6935      -0.0695

 V(El)       0.5824       0.7673      -1.3497
 V(Nuc)     -0.0674      -0.0736       0.1410
         ----------   ----------   ----------
 V(Tot)      0.5150       0.6937      -1.2087 
 Orientation: 
  X       0.8379210    0.0545419   -0.5430595
  Y      -0.4110525    0.7176409   -0.5621631
  Z       0.3590602    0.6942742    0.6237460

Note: Tensor is right-handed

Moessbauer quadrupole splitting parameter (proper coordinate system)
 e**2qQ  =  -45.442 MHz =   -3.917 mm/s
 eta     =  0.148
 Delta-EQ=(1/2{e**2qQ}*sqrt(1+1/3*eta**2) =  -22.804 MHz =   -1.966 mm/s
 RHO(0)=  11816.944255908 a.u.**-3


------------------------------------------------------------------------------- 

Timings for individual modules:

Sum of individual times         ...      217.299 sec (=   3.622 min)
GTO integral calculation        ...        1.085 sec (=   0.018 min)   0.5 %
SCF iterations                  ...      215.697 sec (=   3.595 min)  99.3 %
EPR/NMR calculation             ...        0.518 sec (=   0.009 min)   0.2 %
                             ****ORCA TERMINATED NORMALLY****
TOTAL RUN TIME: 0 days 0 hours 3 minutes 37 seconds 727 msec
