
                                 *****************
                                 * O   R   C   A *
                                 *****************

           --- An Ab Initio, DFT and Semiempirical electronic structure package ---

                  #######################################################
                  #                        -***-                        #
                  #          Department of theory and spectroscopy      #
                  #               Directorship: Frank Neese             #
                  #        Max Planck Institute fuer Kohlenforschung    #
                  #                Kaiser Wilhelm Platz 1               #
                  #                 D-45470 Muelheim/Ruhr               #
                  #                      Germany                        #
                  #                                                     #
                  #                  All rights reserved                #
                  #                        -***-                        #
                  #######################################################


                         Program Version 4.2.1 -  RELEASE  -


 With contributions from (in alphabetic order):
   Daniel Aravena         : Magnetic Suceptibility
   Michael Atanasov       : Ab Initio Ligand Field Theory (pilot matlab implementation)
   Alexander A. Auer      : GIAO ZORA, VPT2
   Ute Becker             : Parallelization
   Giovanni Bistoni       : ED, misc. LED, open-shell LED, HFLD
   Martin Brehm           : Molecular dynamics
   Dmytro Bykov           : SCF Hessian
   Vijay G. Chilkuri      : MRCI spin determinant printing, contributions to CSF-ICE
   Dipayan Datta          : RHF DLPNO-CCSD density
   Achintya Kumar Dutta   : EOM-CC, STEOM-CC
   Dmitry Ganyushin       : Spin-Orbit,Spin-Spin,Magnetic field MRCI
   Miquel Garcia          : C-PCM Hessian, Gaussian charge scheme
   Yang Guo               : DLPNO-NEVPT2, CIM, IAO-localization
   Andreas Hansen         : Spin unrestricted coupled pair/coupled cluster methods
   Benjamin Helmich-Paris : CASSCF linear response (MC-RPA)
   Lee Huntington         : MR-EOM, pCC
   Robert Izsak           : Overlap fitted RIJCOSX, COSX-SCS-MP3, EOM
   Christian Kollmar      : KDIIS, OOCD, Brueckner-CCSD(T), CCSD density
   Simone Kossmann        : Meta GGA functionals, TD-DFT gradient, OOMP2, MP2 Hessian
   Martin Krupicka        : AUTO-CI
   Lucas Lang             : DCDCAS
   Dagmar Lenk            : GEPOL surface, SMD
   Dimitrios Liakos       : Extrapolation schemes; Compound Job, initial MDCI parallelization
   Dimitrios Manganas     : Further ROCIS development; embedding schemes
   Dimitrios Pantazis     : SARC Basis sets
   Taras Petrenko         : DFT Hessian,TD-DFT gradient, ASA, ECA, R-Raman, ABS, FL, XAS/XES, NRVS
   Peter Pinski           : DLPNO-MP2, DLPNO-MP2 Gradient
   Christoph Reimann      : Effective Core Potentials
   Marius Retegan         : Local ZFS, SOC
   Christoph Riplinger    : Optimizer, TS searches, QM/MM, DLPNO-CCSD(T), (RO)-DLPNO pert. Triples
   Tobias Risthaus        : Range-separated hybrids, TD-DFT gradient, RPA, STAB
   Michael Roemelt        : Original ROCIS implementation
   Masaaki Saitow         : Open-shell DLPNO-CCSD energy and density
   Barbara Sandhoefer     : DKH picture change effects
   Avijit Sen             : IP-ROCIS
   Kantharuban Sivalingam : CASSCF convergence, NEVPT2, FIC-MRCI
   Bernardo de Souza      : ESD, SOC TD-DFT
   Georgi Stoychev        : AutoAux, RI-MP2 NMR
   Willem Van den Heuvel  : Paramagnetic NMR
   Boris Wezisla          : Elementary symmetry handling
   Frank Wennmohs         : Technical directorship


 We gratefully acknowledge several colleagues who have allowed us to
 interface, adapt or use parts of their codes:
   Stefan Grimme, W. Hujo, H. Kruse,             : VdW corrections, initial TS optimization,
                  C. Bannwarth                     DFT functionals, gCP, sTDA/sTD-DF
   Ed Valeev, F. Pavosevic, A. Kumar             : LibInt (2-el integral package), F12 methods
   Garnet Chan, S. Sharma, J. Yang, R. Olivares  : DMRG
   Ulf Ekstrom                                   : XCFun DFT Library
   Mihaly Kallay                                 : mrcc  (arbitrary order and MRCC methods)
   Andreas Klamt, Michael Diedenhofen            : otool_cosmo (COSMO solvation model)
   Jiri Pittner, Ondrej Demel                    : Mk-CCSD
   Frank Weinhold                                : gennbo (NPA and NBO analysis)
   Christopher J. Cramer and Donald G. Truhlar   : smd solvation model
   Lars Goerigk                                  : TD-DFT with DH, B97 family of functionals
   V. Asgeirsson, H. Jonsson                     : NEB implementation
   FAccTs GmbH                                   : IRC, NEB, NEB-TS, Multilevel, MM, QM/MM, CI optimization
   S Lehtola, MJT Oliveira, MAL Marques          : LibXC Library


 Your calculation uses the libint2 library for the computation of 2-el integrals
 For citations please refer to: http://libint.valeyev.net

 Your ORCA version has been built with support for libXC version: 4.2.3
 For citations please refer to: https://tddft.org/programs/libxc/

 This ORCA versions uses:
   CBLAS   interface :  Fast vector & matrix operations
   LAPACKE interface :  Fast linear algebra routines
   SCALAPACK package :  Parallel linear algebra routines


----- Orbital basis set information -----
Your calculation utilizes the basis: 6-31G
   H-He, Li-Ne : W. J. Hehre, R. Ditchfield and J.A. Pople, J. Chem. Phys. 56, 2257 (1972).
                 Note: He and Ne are unpublished basis sets taken from the Gaussian program.
                 Note: Li and B from J. D. Dill and J. A. Pople, J. Chem. Phys. 62, 2921 (1975).
   Na - Ar     : M. M. Francl, W. J. Pietro, W. J. Hehre, J. S. Binkley, M. S. Gordon, 
                 D. J. DeFrees and J. A. Pople, J. Chem. Phys. 77, 3654 (1982).
   K - Zn      : V. A. Rassolov, J. A. Pople, M. A. Ratner, and T. L. Windus, J. Chem. Phys. 109, 1223 (1998).

================================================================================
                                        WARNINGS
                       Please study these warnings very carefully!
================================================================================


WARNING: your system is open-shell and RHF/RKS was chosen
  ===> : WILL SWITCH to UHF/UKS


INFO   : the flag for use of LIBINT has been found!

================================================================================
                                       INPUT FILE
================================================================================
NAME = fe2f6.inp
|  1> ! DFT B3LYP 6-31g TightSCF Grid5 NoFinalGrid SlowConv
|  2> %pal
|  3> nprocs 16
|  4> end
|  5> %method SpecialGridAtoms 26
|  6> SpecialGridIntAcc 7
|  7> end
|  8> %basis NewGTO 26 "CP(PPP)" end
|  9> end
| 10> # [Fe(ll)F6]4-  s = 2
| 11> * xyz -4 5
| 12> Fe -0.000035  0.000012  0.000014
| 13> F   2.116808 -0.003546  0.032360
| 14> F  -2.116824  0.001611 -0.030945
| 15> F  -0.003602  2.164955  0.001902
| 16> F   0.001648 -2.165219 -0.003295
| 17> F   0.032586  0.003638  2.109790
| 18> F  -0.030580 -0.001452 -2.109825
| 19> *
| 20> # Note that the EPR block needs to below the coordinate block for 
| 21> # the “all Fe” command (all irons) to be recognized. 
| 22> %eprnmr nuclei = all Fe {rho, fgrad}
| 23> end
| 24> 
| 25>                          ****END OF INPUT****
================================================================================

                       ****************************
                       * Single Point Calculation *
                       ****************************

---------------------------------
CARTESIAN COORDINATES (ANGSTROEM)
---------------------------------
  Fe    -0.000035    0.000012    0.000014
  F      2.116808   -0.003546    0.032360
  F     -2.116824    0.001611   -0.030945
  F     -0.003602    2.164955    0.001902
  F      0.001648   -2.165219   -0.003295
  F      0.032586    0.003638    2.109790
  F     -0.030580   -0.001452   -2.109825

----------------------------
CARTESIAN COORDINATES (A.U.)
----------------------------
  NO LB      ZA    FRAG     MASS         X           Y           Z
   0 Fe   26.0000    0    55.850   -0.000066    0.000023    0.000026
   1 F     9.0000    0    18.998    4.000187   -0.006701    0.061152
   2 F     9.0000    0    18.998   -4.000218    0.003044   -0.058478
   3 F     9.0000    0    18.998   -0.006807    4.091172    0.003594
   4 F     9.0000    0    18.998    0.003114   -4.091671   -0.006227
   5 F     9.0000    0    18.998    0.061579    0.006875    3.986925
   6 F     9.0000    0    18.998   -0.057788   -0.002744   -3.986991

--------------------------------
INTERNAL COORDINATES (ANGSTROEM)
--------------------------------
 Fe     0   0   0     0.000000000000     0.00000000     0.00000000
 F      1   0   0     2.117093103699     0.00000000     0.00000000
 F      1   2   0     2.117015986478   179.93505552     0.00000000
 F      1   2   3     2.164946761766    90.18991868   144.66700864
 F      1   2   4     2.165234182561    89.86051639   179.96317082
 F      1   2   5     2.110031290690    88.23891489    90.18970001
 F      1   2   6     2.110060602505    91.70479545   179.94116877

---------------------------
INTERNAL COORDINATES (A.U.)
---------------------------
 Fe     0   0   0     0.000000000000     0.00000000     0.00000000
 F      1   0   0     4.000726166004     0.00000000     0.00000000
 F      1   2   0     4.000580435576   179.93505552     0.00000000
 F      1   2   3     4.091156474258    90.18991868   144.66700864
 F      1   2   4     4.091699620845    89.86051639   179.96317082
 F      1   2   5     3.987381273409    88.23891489    90.18970001
 F      1   2   6     3.987436664711    91.70479545   179.94116877

---------------------
BASIS SET INFORMATION
---------------------
There are 2 groups of distinct atoms

 Group   1 Type Fe  : 17s11p5d1f contracted to 17s7p3d1f pattern {11111111111111111/3311111/311/1}
 Group   2 Type F   : 10s4p contracted to 3s2p pattern {631/31}

Atom   0Fe   basis set group =>   1
Atom   1F    basis set group =>   2
Atom   2F    basis set group =>   2
Atom   3F    basis set group =>   2
Atom   4F    basis set group =>   2
Atom   5F    basis set group =>   2
Atom   6F    basis set group =>   2


           ************************************************************
           *        Program running with 16 parallel MPI-processes    *
           *              working on a common directory               *
           ************************************************************
------------------------------------------------------------------------------
                           ORCA GTO INTEGRAL CALCULATION
------------------------------------------------------------------------------

                         BASIS SET STATISTICS AND STARTUP INFO

 # of primitive gaussian shells          ...  118
 # of primitive gaussian functions       ...  214
 # of contracted shells                  ...   58
 # of contracted basis functions         ...  114
 Highest angular momentum                ...    3
 Maximum contraction depth               ...    6
 Integral package used                   ... LIBINT
 Integral threshhold            Thresh   ...  2.500e-11
 Primitive cut-off              TCut     ...  2.500e-12


------------------------------ INTEGRAL EVALUATION ----------------------------


 * One electron integrals 
 Pre-screening matrix                    ... done
 Shell pair data                         ... done (   0.001 sec)



           ************************************************************
           *        Program running with 16 parallel MPI-processes    *
           *              working on a common directory               *
           ************************************************************
-------------------------------------------------------------------------------
                                 ORCA SCF
-------------------------------------------------------------------------------

------------
SCF SETTINGS
------------
Hamiltonian:
 Density Functional     Method          .... DFT(GTOs)
 Exchange Functional    Exchange        .... B88
   X-Alpha parameter    XAlpha          ....  0.666667
   Becke's b parameter  XBeta           ....  0.004200
 Correlation Functional Correlation     .... LYP
 LDA part of GGA corr.  LDAOpt          .... VWN-5
 Gradients option       PostSCFGGA      .... off
 Hybrid DFT is turned on
   Fraction HF Exchange ScalHFX         ....  0.200000
   Scaling of DF-GGA-X  ScalDFX         ....  0.720000
   Scaling of DF-GGA-C  ScalDFC         ....  0.810000
   Scaling of DF-LDA-C  ScalLDAC        ....  1.000000
   Perturbative correction              ....  0.000000
   Density functional embedding theory  .... OFF
   NL short-range parameter             ....  4.800000


General Settings:
 Integral files         IntName         .... fe2f6
 Hartree-Fock type      HFTyp           .... UHF
 Total Charge           Charge          ....   -4
 Multiplicity           Mult            ....    5
 Number of Electrons    NEL             ....   84
 Basis Dimension        Dim             ....  114
 Nuclear Repulsion      ENuc            ....    549.6279461815 Eh

Convergence Acceleration:
 DIIS                   CNVDIIS         .... on
   Start iteration      DIISMaxIt       ....     0
   Startup error        DIISStart       ....  0.200000
   # of expansion vecs  DIISMaxEq       ....     5
   Bias factor          DIISBfac        ....   1.050
   Max. coefficient     DIISMaxC        ....  10.000
 Newton-Raphson         CNVNR           .... off
 SOSCF                  CNVSOSCF        .... off
 Level Shifting         CNVShift        .... on
   Level shift para.    LevelShift      ....    0.2500
   Turn off err/grad.   ShiftErr        ....    0.0000
 Zerner damping         CNVZerner       .... off
 Static damping         CNVDamp         .... on
   Fraction old density DampFac         ....    0.8500
   Max. Damping (<1)    DampMax         ....    0.9800
   Min. Damping (>=0)   DampMin         ....    0.0000
   Turn off err/grad.   DampErr         ....    0.0300
 Fernandez-Rico         CNVRico         .... off

SCF Procedure:
 Maximum # iterations   MaxIter         ....   125
 SCF integral mode      SCFMode         .... Direct
   Integral package                     .... LIBINT
 Reset frequency        DirectResetFreq ....    20
 Integral Threshold     Thresh          ....  2.500e-11 Eh
 Primitive CutOff       TCut            ....  2.500e-12 Eh

Convergence Tolerance:
 Convergence Check Mode ConvCheckMode   .... Total+1el-Energy
 Convergence forced     ConvForced      .... 0
 Energy Change          TolE            ....  1.000e-08 Eh
 1-El. energy change                    ....  1.000e-05 Eh
 DIIS Error             TolErr          ....  5.000e-07


Diagonalization of the overlap matrix:
Smallest eigenvalue                        ... 6.262e-03
Time for diagonalization                   ...    0.004 sec
Threshold for overlap eigenvalues          ... 1.000e-08
Number of eigenvalues below threshold      ... 0
Time for construction of square roots      ...    0.003 sec
Total time needed                          ...    0.008 sec

-------------------
DFT GRID GENERATION
-------------------

General Integration Accuracy     IntAcc      ...  5.010
Radial Grid Type                 RadialGrid  ... Gauss-Chebyshev
Angular Grid (max. acc.)         AngularGrid ... Lebedev-434
Angular grid pruning method      GridPruning ... 3 (G Style)
Weight generation scheme         WeightScheme... Becke
Basis function cutoff            BFCut       ...    1.0000e-11
Integration weight cutoff        WCut        ...    1.0000e-14
Grids for H and He will be reduced by one unit

SpecialGrid => Setting IntAcc for atom type =  26 to   7.0000
# of grid points (after initial pruning)     ...  89474 (   0.0 sec)
# of grid points (after weights+screening)   ...  86877 (   0.0 sec)
nearest neighbour list constructed           ...    0.0 sec
Grid point re-assignment to atoms done       ...    0.0 sec
Grid point division into batches done        ...    1.0 sec
Reduced shell lists constructed in    1.0 sec

Total number of grid points                  ...    86877
Total number of batches                      ...     1361
Average number of points per batch           ...       63
Average number of grid points per atom       ...    12411
Average number of shells per batch           ...    35.71 (61.57%)
Average number of basis functions per batch  ...    86.01 (75.45%)
Average number of large shells per batch     ...    30.23 (84.65%)
Average number of large basis fcns per batch ...    75.24 (87.48%)
Maximum spatial batch extension              ...   1.43,  1.53,  1.44 au
Average spatial batch extension              ...   0.06,  0.06,  0.06 au

Time for grid setup =    1.286 sec

------------------------------
INITIAL GUESS: MODEL POTENTIAL
------------------------------
Loading Hartree-Fock densities                     ... done
Calculating cut-offs                               ... done
Setting up the integral package                    ... done
Initializing the effective Hamiltonian             ... done
Starting the Coulomb interaction                   ... done (   0.0 sec)
Reading the grid                                   ... done
Mapping shells                                     ... done
Starting the XC term evaluation                    ... done (   0.0 sec)
  promolecular density results
     # of electrons  =     80.000018298
     EX              =   -114.367724655
     EC              =     -3.220172759
     EX+EC           =   -117.587897414
Transforming the Hamiltonian                       ... done (   0.0 sec)
Diagonalizing the Hamiltonian                      ... done (   0.0 sec)
Back transforming the eigenvectors                 ... done (   0.0 sec)
Now organizing SCF variables                       ... done
                      ------------------
                      INITIAL GUESS DONE (   1.4 sec)
                      ------------------
--------------
SCF ITERATIONS
--------------
ITER       Energy         Delta-E        Max-DP      RMS-DP      [F,P]     Damp
               ***  Starting incremental Fock matrix formation  ***
  0  -1861.2287142347   0.000000000000 0.02031544  0.00116858  0.5037363 0.8500
  1  -1861.3614723819  -0.132758147209 0.03186135  0.00117453  0.4282728 0.8500
                               ***Turning on DIIS***
  2  -1861.4430030456  -0.081530663762 0.03026657  0.00094274  0.3640850 0.8500
  3  -1861.4935710041  -0.050567958441 0.01629572  0.00051492  0.3094796 0.8500
  4  -1861.5300454830  -0.036474478891 0.00742768  0.00030119  0.2630282 0.8500
  5  -1861.5574694926  -0.027424009605 0.00380650  0.00021579  0.2235855 0.8500
  6  -1861.5806254661  -0.023155973532 0.00277215  0.00017932  0.1900706 0.8500
  7  -1861.6006813581  -0.020055892015 0.00269185  0.00017823  0.1615667 0.8500
  8  -1861.6182225198  -0.017541161672 0.00231102  0.00014996  0.1373287 0.8500
  9  -1861.6328205244  -0.014598004573 0.00170192  0.00011676  0.1167113 0.8500
 10  -1861.6449250999  -0.012104575536 0.00137535  0.00009431  0.0991949 0.8500
 11  -1861.6550862215  -0.010161121603 0.00114164  0.00008045  0.0843180 0.8500
 12  -1861.6636934957  -0.008607274224 0.00097564  0.00007067  0.0716763 0.8500
 13  -1861.6709973243  -0.007303828592 0.00083954  0.00006057  0.0609282 0.8500
 14  -1861.6771767912  -0.006179466913 0.00071030  0.00005054  0.0517873 0.8500
 15  -1861.6824002414  -0.005223450199 0.00059746  0.00004219  0.0440165 0.8500
 16  -1861.6868216542  -0.004421412732 0.00050550  0.00003572  0.0374132 0.8500
 17  -1861.6905699872  -0.003748332991 0.00043069  0.00003052  0.0318018 0.8500
 18  -1861.6937499401  -0.003179952890 0.00247383  0.00017331  0.0270322 0.0000
 19  -1861.7116487410  -0.017898800928 0.00024246  0.00001007  0.0004178 0.0000
               *** Restarting incremental Fock matrix formation ***
                                   *** Resetting DIIS ***
 20  -1861.7116493648  -0.000000623810 0.00027122  0.00000904  0.0003659 0.0000
 21  -1861.7116496887  -0.000000323948 0.00010811  0.00000423  0.0003626 0.0000
 22  -1861.7116505495  -0.000000860797 0.00009862  0.00000251  0.0002021 0.0000
 23  -1861.7116508540  -0.000000304491 0.00011279  0.00000258  0.0002019 0.0000
 24  -1861.7116511731  -0.000000319043 0.00015806  0.00000349  0.0002021 0.0000
 25  -1861.7116516214  -0.000000448315 0.00016571  0.00000362  0.0002041 0.0000
 26  -1861.7116520870  -0.000000465636 0.00019292  0.00000418  0.0002037 0.0000
 27  -1861.7116526268  -0.000000539730 0.00013919  0.00000309  0.0002044 0.0000
 28  -1861.7116530197  -0.000000392924 0.00020169  0.00000431  0.0002006 0.0000
 29  -1861.7116535761  -0.000000556455 0.00017651  0.00000383  0.0002033 0.0000
 30  -1861.7116540670  -0.000000490855 0.00027198  0.00000569  0.0002010 0.0000
 31  -1861.7116547981  -0.000000731106 0.00003849  0.00000079  0.0002051 0.0000
 32  -1861.7116547994  -0.000000001353 0.00007846  0.00000171  0.0001893 0.0000
 33  -1861.7116550147  -0.000000215246 0.00007243  0.00000160  0.0001938 0.0000
 34  -1861.7116552126  -0.000000197926 0.00007584  0.00000165  0.0001934 0.0000
 35  -1861.7116554188  -0.000000206221 0.00009291  0.00000199  0.0001933 0.0000
 36  -1861.7116556702  -0.000000251326 0.00025702  0.00000529  0.0001938 0.0000
 37  -1861.7116563442  -0.000000674065 0.00006374  0.00000158  0.0002019 0.0000
 38  -1861.7116565312  -0.000000186921 0.00017743  0.00000368  0.0001908 0.0000
 39  -1861.7116569985  -0.000000467357 0.00019274  0.00000402  0.0001962 0.0000
               *** Restarting incremental Fock matrix formation ***
                                   *** Resetting DIIS ***
 40  -1861.7116575075  -0.000000509032 0.00011204  0.00000244  0.0001962 0.0000
 41  -1861.7116578109  -0.000000303334 0.00008277  0.00000180  0.0001912 0.0000
 42  -1861.7116580320  -0.000000221086 0.00004824  0.00000109  0.0001891 0.0000
 43  -1861.7116581611  -0.000000129118 0.00002595  0.00000062  0.0001871 0.0000
 44  -1861.7116582300  -0.000000068904 0.00001622  0.00000040  0.0001858 0.0000
 45  -1861.7116582728  -0.000000042860 0.00002305  0.00000049  0.0001852 0.0000
 46  -1861.7116583321  -0.000000059264 0.00004014  0.00000083  0.0001855 0.0000
 47  -1861.7116584365  -0.000000104371 0.00012284  0.00000251  0.0001863 0.0000
 48  -1861.7116587520  -0.000000315544 0.00014766  0.00000299  0.0001905 0.0000
 49  -1861.7116591220  -0.000000369963 0.00012649  0.00000264  0.0001909 0.0000
 50  -1861.7116594489  -0.000000326871 0.00020157  0.00000412  0.0001893 0.0000
 51  -1861.7116599581  -0.000000509206 0.00010516  0.00000228  0.0001925 0.0000
 52  -1861.7116602351  -0.000000277075 0.00010654  0.00000224  0.0001867 0.0000
 53  -1861.7116605091  -0.000000273986 0.00006690  0.00000144  0.0001862 0.0000
 54  -1861.7116606821  -0.000000172928 0.00001015  0.00000023  0.0001837 0.0000
                 **** Energy Check signals convergence ****

               *****************************************************
               *                     SUCCESS                       *
               *           SCF CONVERGED AFTER  55 CYCLES          *
               *****************************************************


----------------
TOTAL SCF ENERGY
----------------

Total Energy       :        -1861.71166068 Eh          -50659.74978 eV

Components:
Nuclear Repulsion  :          549.62794618 Eh           14956.13677 eV
Electronic Energy  :        -2411.33960687 Eh          -65615.88655 eV
One Electron Energy:        -3753.10768889 Eh         -102127.25226 eV
Two Electron Energy:         1341.76808202 Eh           36511.36571 eV

Virial components:
Potential Energy   :        -3720.52765972 Eh         -101240.70460 eV
Kinetic Energy     :         1858.81599903 Eh           50580.95482 eV
Virial Ratio       :            2.00155780


DFT components:
N(Alpha)           :       43.999984048810 electrons
N(Beta)            :       39.999984511856 electrons
N(Total)           :       83.999968560666 electrons
E(X)               :      -92.529084772632 Eh       
E(C)               :       -3.910691137238 Eh       
E(XC)              :      -96.439775909870 Eh       
DFET-embed. en.    :        0.000000000000 Eh       

---------------
SCF CONVERGENCE
---------------

  Last Energy change         ...   -2.9193e-09  Tolerance :   1.0000e-08
  Last MAX-Density change    ...    2.7335e-05  Tolerance :   1.0000e-07
  Last RMS-Density change    ...    5.7034e-07  Tolerance :   5.0000e-09
  Last DIIS Error            ...    1.8007e-04  Tolerance :   5.0000e-07

             **** THE GBW FILE WAS UPDATED (fe2f6.gbw) ****
             **** DENSITY FILE WAS UPDATED (fe2f6.scfp) ****
             **** ENERGY FILE WAS UPDATED (fe2f6.en.tmp) ****
----------------------
UHF SPIN CONTAMINATION
----------------------

Warning: in a DFT calculation there is little theoretical justification to 
         calculate <S**2> as in Hartree-Fock theory. We will do it anyways
         but you should keep in mind that the values have only limited relevance

Expectation value of <S**2>     :     6.002527
Ideal value S*(S+1) for S=2.0   :     6.000000
Deviation                       :     0.002527

             **** THE GBW FILE WAS UPDATED (fe2f6.gbw) ****
             **** DENSITY FILE WAS UPDATED (fe2f6.scfp) ****
----------------
ORBITAL ENERGIES
----------------
                 SPIN UP ORBITALS
  NO   OCC          E(Eh)            E(eV) 
   0   1.0000    -255.206382     -6944.5187 
   1   1.0000     -29.178790      -793.9952 
   2   1.0000     -25.056302      -681.8166 
   3   1.0000     -25.025169      -680.9695 
   4   1.0000     -25.024414      -680.9489 
   5   1.0000     -23.803685      -647.7312 
   6   1.0000     -23.803669      -647.7308 
   7   1.0000     -23.798568      -647.5919 
   8   1.0000     -23.798545      -647.5913 
   9   1.0000     -23.792631      -647.4304 
  10   1.0000     -23.792609      -647.4298 
  11   1.0000      -2.684022       -73.0360 
  12   1.0000      -1.504452       -40.9382 
  13   1.0000      -1.440921       -39.2095 
  14   1.0000      -1.439603       -39.1736 
  15   1.0000      -0.267967        -7.2917 
  16   1.0000      -0.264577        -7.1995 
  17   1.0000      -0.259247        -7.0545 
  18   1.0000      -0.259198        -7.0531 
  19   1.0000      -0.252713        -6.8767 
  20   1.0000      -0.252313        -6.8658 
  21   1.0000       0.398486        10.8433 
  22   1.0000       0.407562        11.0903 
  23   1.0000       0.420541        11.4435 
  24   1.0000       0.428621        11.6634 
  25   1.0000       0.433888        11.8067 
  26   1.0000       0.434449        11.8220 
  27   1.0000       0.437003        11.8914 
  28   1.0000       0.437583        11.9072 
  29   1.0000       0.448201        12.1962 
  30   1.0000       0.455298        12.3893 
  31   1.0000       0.456862        12.4319 
  32   1.0000       0.457987        12.4625 
  33   1.0000       0.466744        12.7007 
  34   1.0000       0.469890        12.7864 
  35   1.0000       0.471614        12.8333 
  36   1.0000       0.474878        12.9221 
  37   1.0000       0.477786        13.0012 
  38   1.0000       0.480056        13.0630 
  39   1.0000       0.521611        14.1937 
  40   1.0000       0.521644        14.1946 
  41   1.0000       0.566879        15.4256 
  42   1.0000       0.575293        15.6545 
  43   1.0000       0.581296        15.8179 
  44   0.0000       0.704860        19.1802 
  45   0.0000       0.706956        19.2373 
  46   0.0000       0.708314        19.2742 
  47   0.0000       0.710416        19.3314 
  48   0.0000       0.975433        26.5429 
  49   0.0000       1.104165        30.0459 
  50   0.0000       1.107012        30.1233 
  51   0.0000       1.110873        30.2284 
  52   0.0000       1.691442        46.0265 
  53   0.0000       1.692506        46.0554 
  54   0.0000       1.713184        46.6181 
  55   0.0000       1.889741        51.4225 
  56   0.0000       1.909371        51.9566 
  57   0.0000       1.994210        54.2652 
  58   0.0000       1.999660        54.4135 
  59   0.0000       2.005833        54.5815 
  60   0.0000       2.031487        55.2796 
  61   0.0000       2.037079        55.4318 
  62   0.0000       2.049247        55.7628 
  63   0.0000       2.056143        55.9505 
  64   0.0000       2.059643        56.0457 
  65   0.0000       2.062713        56.1293 
  66   0.0000       2.064250        56.1711 
  67   0.0000       2.068100        56.2759 
  68   0.0000       2.105228        57.2862 
  69   0.0000       2.111463        57.4558 
  70   0.0000       2.119269        57.6682 
  71   0.0000       2.137349        58.1602 
  72   0.0000       2.138479        58.1910 
  73   0.0000       2.147096        58.4255 
  74   0.0000       2.157345        58.7043 
  75   0.0000       2.575377        70.0796 
  76   0.0000       2.576705        70.1157 
  77   0.0000       2.601513        70.7908 
  78   0.0000       2.754270        74.9475 
  79   0.0000       2.768129        75.3246 
  80   0.0000       2.780480        75.6607 
  81   0.0000       2.823695        76.8367 
  82   0.0000       2.824299        76.8531 
  83   0.0000       2.858150        77.7742 
  84   0.0000       4.255753       115.8049 
  85   0.0000       5.802922       157.9055 
  86   0.0000       5.806978       158.0159 
  87   0.0000       5.854388       159.3060 
  88   0.0000       6.090989       165.7442 
  89   0.0000       6.101662       166.0347 
  90   0.0000       6.786107       184.6594 
  91   0.0000       6.792376       184.8299 
  92   0.0000       6.797357       184.9655 
  93   0.0000       6.805969       185.1998 
  94   0.0000       6.822897       185.6605 
  95   0.0000       6.856459       186.5737 
  96   0.0000       6.857047       186.5897 
  97   0.0000      10.085585       274.4427 
  98   0.0000      10.133487       275.7462 
  99   0.0000      10.143450       276.0173 
 100   0.0000      26.343516       716.8435 
 101   0.0000     168.195374      4576.8288 
 102   0.0000     217.191418      5910.0790 
 103   0.0000     217.199212      5910.2910 
 104   0.0000     217.206724      5910.4955 
 105   0.0000     722.702449     19665.7334 
 106   0.0000    2455.042085     66805.0914 
 107   0.0000    8072.419513    219661.7023 
 108   0.0000   28474.555793    774832.0548 
 109   0.0000   117241.542215   3190304.5556 
 110   0.0000   597781.756024   16266468.5527 
 111   0.0000   2211675.513243   60182750.3473 
 112   0.0000   6563630.211025   178605458.1680 
 113   0.0000   18768449.934964   510715487.0040 

                 SPIN DOWN ORBITALS
  NO   OCC          E(Eh)            E(eV) 
   0   1.0000    -255.206307     -6944.5167 
   1   1.0000     -29.100479      -791.8643 
   2   1.0000     -24.980676      -679.7587 
   3   1.0000     -24.966258      -679.3664 
   4   1.0000     -24.965819      -679.3545 
   5   1.0000     -23.802044      -647.6865 
   6   1.0000     -23.802028      -647.6861 
   7   1.0000     -23.797132      -647.5529 
   8   1.0000     -23.797109      -647.5523 
   9   1.0000     -23.791363      -647.3959 
  10   1.0000     -23.791342      -647.3953 
  11   1.0000      -2.494630       -67.8823 
  12   1.0000      -1.268481       -34.5171 
  13   1.0000      -1.258836       -34.2547 
  14   1.0000      -1.258525       -34.2462 
  15   1.0000      -0.264541        -7.1985 
  16   1.0000      -0.260989        -7.1019 
  17   1.0000      -0.256068        -6.9680 
  18   1.0000      -0.255928        -6.9642 
  19   1.0000      -0.249979        -6.8023 
  20   1.0000      -0.249435        -6.7875 
  21   1.0000       0.408803        11.1241 
  22   1.0000       0.435070        11.8389 
  23   1.0000       0.439175        11.9506 
  24   1.0000       0.441104        12.0031 
  25   1.0000       0.443577        12.0703 
  26   1.0000       0.449324        12.2267 
  27   1.0000       0.452073        12.3015 
  28   1.0000       0.453737        12.3468 
  29   1.0000       0.454317        12.3626 
  30   1.0000       0.458736        12.4828 
  31   1.0000       0.459802        12.5119 
  32   1.0000       0.461948        12.5702 
  33   1.0000       0.468736        12.7550 
  34   1.0000       0.472038        12.8448 
  35   1.0000       0.473578        12.8867 
  36   1.0000       0.477840        13.0027 
  37   1.0000       0.480232        13.0678 
  38   1.0000       0.481608        13.1052 
  39   1.0000       0.655652        17.8412 
  40   0.0000       0.705298        19.1921 
  41   0.0000       0.707418        19.2498 
  42   0.0000       0.708699        19.2847 
  43   0.0000       0.710609        19.3367 
  44   0.0000       0.810923        22.0663 
  45   0.0000       0.814980        22.1767 
  46   0.0000       0.845159        22.9979 
  47   0.0000       0.876055        23.8387 
  48   0.0000       1.007163        27.4063 
  49   0.0000       1.121732        30.5239 
  50   0.0000       1.125151        30.6169 
  51   0.0000       1.133560        30.8457 
  52   0.0000       1.734086        47.1869 
  53   0.0000       1.746746        47.5314 
  54   0.0000       1.748777        47.5866 
  55   0.0000       1.950362        53.0720 
  56   0.0000       1.966389        53.5082 
  57   0.0000       1.995589        54.3027 
  58   0.0000       2.000737        54.4428 
  59   0.0000       2.006851        54.6092 
  60   0.0000       2.033776        55.3419 
  61   0.0000       2.038947        55.4826 
  62   0.0000       2.052844        55.8607 
  63   0.0000       2.058821        56.0234 
  64   0.0000       2.061918        56.1077 
  65   0.0000       2.063836        56.1598 
  66   0.0000       2.064940        56.1899 
  67   0.0000       2.069687        56.3190 
  68   0.0000       2.115088        57.5545 
  69   0.0000       2.119831        57.6835 
  70   0.0000       2.125496        57.8377 
  71   0.0000       2.160272        58.7840 
  72   0.0000       2.160872        58.8003 
  73   0.0000       2.174694        59.1764 
  74   0.0000       2.176165        59.2165 
  75   0.0000       2.629377        71.5490 
  76   0.0000       2.654238        72.2255 
  77   0.0000       2.660610        72.3989 
  78   0.0000       2.786880        75.8349 
  79   0.0000       2.787512        75.8521 
  80   0.0000       2.798868        76.1611 
  81   0.0000       2.832687        77.0813 
  82   0.0000       2.838751        77.2463 
  83   0.0000       2.880400        78.3797 
  84   0.0000       4.349031       118.3432 
  85   0.0000       5.922375       161.1560 
  86   0.0000       5.946287       161.8067 
  87   0.0000       5.950093       161.9103 
  88   0.0000       6.226610       169.4347 
  89   0.0000       6.243195       169.8860 
  90   0.0000       6.970652       189.6811 
  91   0.0000       6.973090       189.7474 
  92   0.0000       6.976741       189.8468 
  93   0.0000       6.986690       190.1175 
  94   0.0000       7.004541       190.6033 
  95   0.0000       7.011299       190.7872 
  96   0.0000       7.020101       191.0267 
  97   0.0000      10.231772       278.4207 
  98   0.0000      10.248007       278.8625 
  99   0.0000      10.257714       279.1266 
 100   0.0000      26.455237       719.8836 
 101   0.0000     168.228939      4577.7422 
 102   0.0000     217.206793      5910.4973 
 103   0.0000     217.211653      5910.6296 
 104   0.0000     217.218934      5910.8277 
 105   0.0000     722.709732     19665.9316 
 106   0.0000    2455.043565     66805.1317 
 107   0.0000    8072.419584    219661.7043 
 108   0.0000   28474.555475    774832.0462 
 109   0.0000   117241.541849   3190304.5457 
 110   0.0000   597781.755857   16266468.5481 
 111   0.0000   2211675.513288   60182750.3485 
 112   0.0000   6563630.211331   178605458.1763 
 113   0.0000   18768449.935635   510715487.0223 

                    ********************************
                    * MULLIKEN POPULATION ANALYSIS *
                    ********************************

--------------------------------------------
MULLIKEN ATOMIC CHARGES AND SPIN POPULATIONS
--------------------------------------------
   0 Fe:    0.136015    3.846528
   1 F :   -0.686405    0.025417
   2 F :   -0.686391    0.025412
   3 F :   -0.696548    0.022053
   4 F :   -0.696616    0.022027
   5 F :   -0.685027    0.029285
   6 F :   -0.685029    0.029278
Sum of atomic charges         :   -4.0000000
Sum of atomic spin populations:    4.0000000

-----------------------------------------------------
MULLIKEN REDUCED ORBITAL CHARGES AND SPIN POPULATIONS
-----------------------------------------------------
CHARGE
  0 Fes       :     6.375290  s :     6.375290
      pz      :     4.427910  p :    13.268675
      px      :     4.424403
      py      :     4.416362
      dz2     :     1.085300  d :     6.219746
      dxz     :     1.029418
      dyz     :     1.284849
      dx2y2   :     1.072902
      dxy     :     1.747277
      f0      :     0.000061  f :     0.000273
      f+1     :     0.000045
      f-1     :     0.000031
      f+2     :     0.000023
      f-2     :     0.000022
      f+3     :     0.000049
      f-3     :     0.000043
  1 F s       :     3.966689  s :     3.966689
      pz      :     1.937781  p :     5.719715
      px      :     1.839307
      py      :     1.942628
  2 F s       :     3.966686  s :     3.966686
      pz      :     1.937753  p :     5.719704
      px      :     1.839296
      py      :     1.942655
  3 F s       :     3.967398  s :     3.967398
      pz      :     1.939552  p :     5.729149
      px      :     1.942103
      py      :     1.847494
  4 F s       :     3.967402  s :     3.967402
      pz      :     1.939537  p :     5.729214
      px      :     1.942144
      py      :     1.847533
  5 F s       :     3.966812  s :     3.966812
      pz      :     1.837321  p :     5.718215
      px      :     1.939571
      py      :     1.941323
  6 F s       :     3.966811  s :     3.966811
      pz      :     1.837323  p :     5.718219
      px      :     1.939552
      py      :     1.941343

SPIN
  0 Fes       :     0.014118  s :     0.014118
      pz      :     0.000041  p :    -0.001356
      px      :    -0.000593
      py      :    -0.000805
      dz2     :     0.931508  d :     3.833741
      dxz     :     0.978601
      dyz     :     0.722317
      dx2y2   :     0.942116
      dxy     :     0.259200
      f0      :     0.000016  f :     0.000025
      f+1     :     0.000012
      f-1     :     0.000003
      f+2     :    -0.000004
      f-2     :     0.000016
      f+3     :    -0.000004
      f-3     :    -0.000014
  1 F s       :     0.001033  s :     0.001033
      pz      :     0.005696  p :     0.024383
      px      :     0.017204
      py      :     0.001483
  2 F s       :     0.001034  s :     0.001034
      pz      :     0.005702  p :     0.024379
      px      :     0.017199
      py      :     0.001477
  3 F s       :     0.001047  s :     0.001047
      pz      :     0.003428  p :     0.021006
      px      :     0.001131
      py      :     0.016447
  4 F s       :     0.001046  s :     0.001046
      pz      :     0.003427  p :     0.020981
      px      :     0.001117
      py      :     0.016437
  5 F s       :     0.001013  s :     0.001013
      pz      :     0.017991  p :     0.028272
      px      :     0.005845
      py      :     0.004435
  6 F s       :     0.001013  s :     0.001013
      pz      :     0.017989  p :     0.028265
      px      :     0.005848
      py      :     0.004428


                     *******************************
                     * LOEWDIN POPULATION ANALYSIS *
                     *******************************

-------------------------------------------
LOEWDIN ATOMIC CHARGES AND SPIN POPULATIONS
-------------------------------------------
   0 Fe:   -0.321066    3.817918
   1 F :   -0.608162    0.030203
   2 F :   -0.608136    0.030199
   3 F :   -0.626304    0.026337
   4 F :   -0.626419    0.026308
   5 F :   -0.604952    0.034522
   6 F :   -0.604961    0.034513

----------------------------------------------------
LOEWDIN REDUCED ORBITAL CHARGES AND SPIN POPULATIONS
----------------------------------------------------
CHARGE
  0 Fes       :     6.425769  s :     6.425769
      pz      :     4.523825  p :    13.549209
      px      :     4.519141
      py      :     4.506243
      dz2     :     1.142138  d :     6.345763
      dxz     :     1.035891
      dyz     :     1.290082
      dx2y2   :     1.126108
      dxy     :     1.751543
      f0      :     0.000078  f :     0.000325
      f+1     :     0.000053
      f-1     :     0.000037
      f+2     :     0.000025
      f-2     :     0.000022
      f+3     :     0.000059
      f-3     :     0.000051
  1 F s       :     3.883532  s :     3.883532
      pz      :     1.935500  p :     5.724630
      px      :     1.848428
      py      :     1.940702
  2 F s       :     3.883518  s :     3.883518
      pz      :     1.935477  p :     5.724618
      px      :     1.848417
      py      :     1.940723
  3 F s       :     3.891196  s :     3.891196
      pz      :     1.938336  p :     5.735108
      px      :     1.941038
      py      :     1.855734
  4 F s       :     3.891240  s :     3.891240
      pz      :     1.938332  p :     5.735179
      px      :     1.941079
      py      :     1.855768
  5 F s       :     3.882589  s :     3.882589
      pz      :     1.846325  p :     5.722363
      px      :     1.937067
      py      :     1.938971
  6 F s       :     3.882593  s :     3.882593
      pz      :     1.846327  p :     5.722368
      px      :     1.937053
      py      :     1.938989

SPIN
  0 Fes       :     0.009375  s :     0.009375
      pz      :    -0.000228  p :    -0.001540
      px      :    -0.000604
      py      :    -0.000708
      dz2     :     0.921300  d :     3.810059
      dxz     :     0.976848
      dyz     :     0.721199
      dx2y2   :     0.931812
      dxy     :     0.258900
      f0      :     0.000016  f :     0.000024
      f+1     :     0.000012
      f-1     :     0.000003
      f+2     :    -0.000004
      f-2     :     0.000016
      f+3     :    -0.000005
      f-3     :    -0.000014
  1 F s       :     0.002105  s :     0.002105
      pz      :     0.006113  p :     0.028098
      px      :     0.020420
      py      :     0.001565
  2 F s       :     0.002105  s :     0.002105
      pz      :     0.006120  p :     0.028094
      px      :     0.020416
      py      :     0.001559
  3 F s       :     0.002023  s :     0.002023
      pz      :     0.003655  p :     0.024315
      px      :     0.001190
      py      :     0.019469
  4 F s       :     0.002021  s :     0.002021
      pz      :     0.003654  p :     0.024287
      px      :     0.001176
      py      :     0.019457
  5 F s       :     0.002134  s :     0.002134
      pz      :     0.021373  p :     0.032388
      px      :     0.006271
      py      :     0.004744
  6 F s       :     0.002134  s :     0.002134
      pz      :     0.021369  p :     0.032379
      px      :     0.006274
      py      :     0.004737


                      *****************************
                      * MAYER POPULATION ANALYSIS *
                      *****************************

  NA   - Mulliken gross atomic population
  ZA   - Total nuclear charge
  QA   - Mulliken gross atomic charge
  VA   - Mayer's total valence
  BVA  - Mayer's bonded valence
  FA   - Mayer's free valence

  ATOM       NA         ZA         QA         VA         BVA        FA
  0 Fe    25.8640    26.0000     0.1360     7.0106     3.3105     3.7002
  1 F      9.6864     9.0000    -0.6864     0.5776     0.5770     0.0006
  2 F      9.6864     9.0000    -0.6864     0.5776     0.5770     0.0006
  3 F      9.6965     9.0000    -0.6965     0.5612     0.5607     0.0005
  4 F      9.6966     9.0000    -0.6966     0.5611     0.5606     0.0005
  5 F      9.6850     9.0000    -0.6850     0.5789     0.5783     0.0007
  6 F      9.6850     9.0000    -0.6850     0.5789     0.5782     0.0007

  Mayer bond orders larger than 0.100000
B(  0-Fe,  1-F ) :   0.5565 B(  0-Fe,  2-F ) :   0.5566 B(  0-Fe,  3-F ) :   0.5403 
B(  0-Fe,  4-F ) :   0.5402 B(  0-Fe,  5-F ) :   0.5585 B(  0-Fe,  6-F ) :   0.5585 


-------
TIMINGS
-------

Total SCF time: 0 days 0 hours 0 min 13 sec 

Total time                  ....      13.045 sec
Sum of individual times     ....      12.751 sec  ( 97.7%)

Fock matrix formation       ....      10.994 sec  ( 84.3%)
  XC integration            ....       2.531 sec  ( 23.0% of F)
    Basis function eval.    ....       0.606 sec  ( 23.9% of XC)
    Density eval.           ....       0.443 sec  ( 17.5% of XC)
    XC-Functional eval.     ....       0.425 sec  ( 16.8% of XC)
    XC-Potential eval.      ....       0.357 sec  ( 14.1% of XC)
Diagonalization             ....       0.227 sec  (  1.7%)
Density matrix formation    ....       0.027 sec  (  0.2%)
Population analysis         ....       0.005 sec  (  0.0%)
Initial guess               ....       0.136 sec  (  1.0%)
Orbital Transformation      ....       0.000 sec  (  0.0%)
Orbital Orthonormalization  ....       0.000 sec  (  0.0%)
DIIS solution               ....       0.075 sec  (  0.6%)
Grid generation             ....       1.286 sec  (  9.9%)

-------------------------   --------------------
FINAL SINGLE POINT ENERGY     -1861.711660684972
-------------------------   --------------------


                            ***************************************
                            *     ORCA property calculations      *
                            ***************************************

                                    ---------------------
                                    Active property flags
                                    ---------------------
   (+) Dipole Moment
   (+) Nuclear properties (Hyperfine,Quadrupole)


------------------------------------------------------------------------------
                       ORCA ELECTRIC PROPERTIES CALCULATION
------------------------------------------------------------------------------

Dipole Moment Calculation                       ... on
Quadrupole Moment Calculation                   ... off
Polarizability Calculation                      ... off
GBWName                                         ... fe2f6.gbw
Electron density file                           ... fe2f6.scfp
The origin for moment calculation is the CENTER OF MASS  = (-0.000014,  0.000005  0.000006)

-------------
DIPOLE MOMENT
-------------
                                X             Y             Z
Electronic contribution:     -0.00012       0.00025       0.00012
Nuclear contribution   :      0.00002      -0.00001      -0.00001
                        -----------------------------------------
Total Dipole Moment    :     -0.00010       0.00024       0.00011
                        -----------------------------------------
Magnitude (a.u.)       :      0.00028
Magnitude (Debye)      :      0.00072



--------------------
Rotational spectrum 
--------------------
 
Rotational constants in cm-1:     0.049663     0.049186     0.047758 
Rotational constants in MHz :  1488.870011  1474.549726  1431.762849 

 Dipole components along the rotational axes: 
x,y,z [a.u.] :    -0.000248     0.000005     0.000140 
x,y,z [Debye]:    -0.000631     0.000014     0.000356 

 


           ************************************************************
           *        Program running with 16 parallel MPI-processes    *
           *              working on a common directory               *
           ************************************************************
------------------------------------------------------------------------------
                                ORCA EPR/NMR CALCULATION
------------------------------------------------------------------------------

GBWName                      ... fe2f6.gbw
Electron density file        ... fe2f6.scfp
Spin density file            ... fe2f6.scfr
Multiplicity                 ... 5
g-tensor                     ... 0
NMR chemical shifts          ... 0
Number of nuclei for epr/nmr ... 1
   Nucleus:   0Fe
       Hyperfine : Isotope=   57 I=   0.500 P=  17.280
       Quadrupole: Isotope=   57 I=   0.500 Q=   0.160
       Spin-Orbit: Zeff=  13.910
       Ncuelar Spin-Spin: Gn=   0.000
       rho(0)=Y f(grad)=Y a(iso)=N a(dip)=N a(orb)=N sigma(nmr)=N spin-spin(nmr)=all-N,DSO-N,PSO-N,FC-N,SD-N

-----------------------------------------
ELECTRIC AND MAGNETIC HYPERFINE STRUCTURE
-----------------------------------------

 -----------------------------------------------------------
 Nucleus   0Fe: A:ISTP=   57 I=  0.5 P= 17.2798 MHz/au**3
                Q:ISTP=   57 I=  0.5 Q=  0.1600 barn     
 -----------------------------------------------------------
 Raw EFG matrix (all values in a.u.**-3):
            -0.3155      -0.0219       1.6170
            -0.0219      -1.1262       0.0345
             1.6170       0.0345       1.4417

 V(El)      -1.0815      -1.2780       2.3595
 V(Nuc)     -0.0365      -0.0075       0.0440
         ----------   ----------   ----------
 V(Tot)     -1.1179      -1.2856       2.4035 
 Orientation: 
  X      -0.1945228   -0.8372090    0.5111184
  Y       0.9747401   -0.2232808    0.0052365
  Z       0.1097388    0.4992262    0.8594944

Note: Tensor is right-handed

Moessbauer quadrupole splitting parameter (proper coordinate system)
 e**2qQ  =   90.358 MHz =    7.789 mm/s
 eta     =  0.070
 Delta-EQ=(1/2{e**2qQ}*sqrt(1+1/3*eta**2) =   45.216 MHz =    3.898 mm/s
 RHO(0)=  11814.337903315 a.u.**-3


------------------------------------------------------------------------------- 

Timings for individual modules:

Sum of individual times         ...       14.295 sec (=   0.238 min)
GTO integral calculation        ...        0.601 sec (=   0.010 min)   4.2 %
SCF iterations                  ...       13.296 sec (=   0.222 min)  93.0 %
EPR/NMR calculation             ...        0.398 sec (=   0.007 min)   2.8 %
                             ****ORCA TERMINATED NORMALLY****
TOTAL RUN TIME: 0 days 0 hours 0 minutes 14 seconds 684 msec
