
                                 *****************
                                 * O   R   C   A *
                                 *****************

           --- An Ab Initio, DFT and Semiempirical electronic structure package ---

                  #######################################################
                  #                        -***-                        #
                  #          Department of theory and spectroscopy      #
                  #               Directorship: Frank Neese             #
                  #        Max Planck Institute fuer Kohlenforschung    #
                  #                Kaiser Wilhelm Platz 1               #
                  #                 D-45470 Muelheim/Ruhr               #
                  #                      Germany                        #
                  #                                                     #
                  #                  All rights reserved                #
                  #                        -***-                        #
                  #######################################################


                         Program Version 4.2.1 -  RELEASE  -


 With contributions from (in alphabetic order):
   Daniel Aravena         : Magnetic Suceptibility
   Michael Atanasov       : Ab Initio Ligand Field Theory (pilot matlab implementation)
   Alexander A. Auer      : GIAO ZORA, VPT2
   Ute Becker             : Parallelization
   Giovanni Bistoni       : ED, misc. LED, open-shell LED, HFLD
   Martin Brehm           : Molecular dynamics
   Dmytro Bykov           : SCF Hessian
   Vijay G. Chilkuri      : MRCI spin determinant printing, contributions to CSF-ICE
   Dipayan Datta          : RHF DLPNO-CCSD density
   Achintya Kumar Dutta   : EOM-CC, STEOM-CC
   Dmitry Ganyushin       : Spin-Orbit,Spin-Spin,Magnetic field MRCI
   Miquel Garcia          : C-PCM Hessian, Gaussian charge scheme
   Yang Guo               : DLPNO-NEVPT2, CIM, IAO-localization
   Andreas Hansen         : Spin unrestricted coupled pair/coupled cluster methods
   Benjamin Helmich-Paris : CASSCF linear response (MC-RPA)
   Lee Huntington         : MR-EOM, pCC
   Robert Izsak           : Overlap fitted RIJCOSX, COSX-SCS-MP3, EOM
   Christian Kollmar      : KDIIS, OOCD, Brueckner-CCSD(T), CCSD density
   Simone Kossmann        : Meta GGA functionals, TD-DFT gradient, OOMP2, MP2 Hessian
   Martin Krupicka        : AUTO-CI
   Lucas Lang             : DCDCAS
   Dagmar Lenk            : GEPOL surface, SMD
   Dimitrios Liakos       : Extrapolation schemes; Compound Job, initial MDCI parallelization
   Dimitrios Manganas     : Further ROCIS development; embedding schemes
   Dimitrios Pantazis     : SARC Basis sets
   Taras Petrenko         : DFT Hessian,TD-DFT gradient, ASA, ECA, R-Raman, ABS, FL, XAS/XES, NRVS
   Peter Pinski           : DLPNO-MP2, DLPNO-MP2 Gradient
   Christoph Reimann      : Effective Core Potentials
   Marius Retegan         : Local ZFS, SOC
   Christoph Riplinger    : Optimizer, TS searches, QM/MM, DLPNO-CCSD(T), (RO)-DLPNO pert. Triples
   Tobias Risthaus        : Range-separated hybrids, TD-DFT gradient, RPA, STAB
   Michael Roemelt        : Original ROCIS implementation
   Masaaki Saitow         : Open-shell DLPNO-CCSD energy and density
   Barbara Sandhoefer     : DKH picture change effects
   Avijit Sen             : IP-ROCIS
   Kantharuban Sivalingam : CASSCF convergence, NEVPT2, FIC-MRCI
   Bernardo de Souza      : ESD, SOC TD-DFT
   Georgi Stoychev        : AutoAux, RI-MP2 NMR
   Willem Van den Heuvel  : Paramagnetic NMR
   Boris Wezisla          : Elementary symmetry handling
   Frank Wennmohs         : Technical directorship


 We gratefully acknowledge several colleagues who have allowed us to
 interface, adapt or use parts of their codes:
   Stefan Grimme, W. Hujo, H. Kruse,             : VdW corrections, initial TS optimization,
                  C. Bannwarth                     DFT functionals, gCP, sTDA/sTD-DF
   Ed Valeev, F. Pavosevic, A. Kumar             : LibInt (2-el integral package), F12 methods
   Garnet Chan, S. Sharma, J. Yang, R. Olivares  : DMRG
   Ulf Ekstrom                                   : XCFun DFT Library
   Mihaly Kallay                                 : mrcc  (arbitrary order and MRCC methods)
   Andreas Klamt, Michael Diedenhofen            : otool_cosmo (COSMO solvation model)
   Jiri Pittner, Ondrej Demel                    : Mk-CCSD
   Frank Weinhold                                : gennbo (NPA and NBO analysis)
   Christopher J. Cramer and Donald G. Truhlar   : smd solvation model
   Lars Goerigk                                  : TD-DFT with DH, B97 family of functionals
   V. Asgeirsson, H. Jonsson                     : NEB implementation
   FAccTs GmbH                                   : IRC, NEB, NEB-TS, Multilevel, MM, QM/MM, CI optimization
   S Lehtola, MJT Oliveira, MAL Marques          : LibXC Library


 Your calculation uses the libint2 library for the computation of 2-el integrals
 For citations please refer to: http://libint.valeyev.net

 Your ORCA version has been built with support for libXC version: 4.2.3
 For citations please refer to: https://tddft.org/programs/libxc/

 This ORCA versions uses:
   CBLAS   interface :  Fast vector & matrix operations
   LAPACKE interface :  Fast linear algebra routines
   SCALAPACK package :  Parallel linear algebra routines


----- Orbital basis set information -----
Your calculation utilizes the basis: 6-31G
   H-He, Li-Ne : W. J. Hehre, R. Ditchfield and J.A. Pople, J. Chem. Phys. 56, 2257 (1972).
                 Note: He and Ne are unpublished basis sets taken from the Gaussian program.
                 Note: Li and B from J. D. Dill and J. A. Pople, J. Chem. Phys. 62, 2921 (1975).
   Na - Ar     : M. M. Francl, W. J. Pietro, W. J. Hehre, J. S. Binkley, M. S. Gordon, 
                 D. J. DeFrees and J. A. Pople, J. Chem. Phys. 77, 3654 (1982).
   K - Zn      : V. A. Rassolov, J. A. Pople, M. A. Ratner, and T. L. Windus, J. Chem. Phys. 109, 1223 (1998).

================================================================================
                                        WARNINGS
                       Please study these warnings very carefully!
================================================================================


INFO   : the flag for use of LIBINT has been found!

================================================================================
                                       INPUT FILE
================================================================================
NAME = fecl4.inp
|  1> ! UKS B3LYP 6-31g TightSCF Grid5 NoFinalGrid SlowConv
|  2> %pal
|  3> nprocs 8
|  4> end
|  5> %method SpecialGridAtoms 26
|  6> SpecialGridIntAcc 7
|  7> end
|  8> %basis NewGTO 26 "CP(PPP)" end
|  9> end
| 10> * xyz 0 1
| 11>  Fe -0.005543 -0.010542 0.000078
| 12>  Cl 2.340289 -0.142823 0.000187
| 13>  Cl -0.915720 2.154368 -0.000255
| 14>  Cl -0.709682 -1.000364 -2.005230
| 15>  Cl -0.709344 -1.000639 2.005220
| 16> *
| 17> # Note that the EPR block needs to below the coordinate block for the “all Fe” command (all irons) to be recognized. 
| 18> %eprnmr nuclei = all Fe {rho, fgrad}
| 19> end
| 20> 
| 21>                          ****END OF INPUT****
================================================================================

                       ****************************
                       * Single Point Calculation *
                       ****************************

---------------------------------
CARTESIAN COORDINATES (ANGSTROEM)
---------------------------------
  Fe    -0.005543   -0.010542    0.000078
  Cl     2.340289   -0.142823    0.000187
  Cl    -0.915720    2.154368   -0.000255
  Cl    -0.709682   -1.000364   -2.005230
  Cl    -0.709344   -1.000639    2.005220

----------------------------
CARTESIAN COORDINATES (A.U.)
----------------------------
  NO LB      ZA    FRAG     MASS         X           Y           Z
   0 Fe   26.0000    0    55.850   -0.010475   -0.019921    0.000147
   1 Cl   17.0000    0    35.453    4.422505   -0.269896    0.000353
   2 Cl   17.0000    0    35.453   -1.730460    4.071166   -0.000482
   3 Cl   17.0000    0    35.453   -1.341105   -1.890414   -3.789336
   4 Cl   17.0000    0    35.453   -1.340466   -1.890934    3.789317

--------------------------------
INTERNAL COORDINATES (ANGSTROEM)
--------------------------------
 Fe     0   0   0     0.000000000000     0.00000000     0.00000000
 Cl     1   0   0     2.349558691982     0.00000000     0.00000000
 Cl     1   2   0     2.348458556227   116.03046272     0.00000000
 Cl     1   2   3     2.344529696521   106.02918450   117.13170340
 Cl     1   2   3     2.344402345412   106.01637344   242.84579920

---------------------------
INTERNAL COORDINATES (A.U.)
---------------------------
 Fe     0   0   0     0.000000000000     0.00000000     0.00000000
 Cl     1   0   0     4.440022463419     0.00000000     0.00000000
 Cl     1   2   0     4.437943508134   116.03046272     0.00000000
 Cl     1   2   3     4.430519039270   106.02918450   117.13170340
 Cl     1   2   3     4.430278380552   106.01637344   242.84579920

---------------------
BASIS SET INFORMATION
---------------------
There are 2 groups of distinct atoms

 Group   1 Type Fe  : 17s11p5d1f contracted to 17s7p3d1f pattern {11111111111111111/3311111/311/1}
 Group   2 Type Cl  : 16s10p contracted to 4s3p pattern {6631/631}

Atom   0Fe   basis set group =>   1
Atom   1Cl   basis set group =>   2
Atom   2Cl   basis set group =>   2
Atom   3Cl   basis set group =>   2
Atom   4Cl   basis set group =>   2

Checking for AutoStart:
The File: fecl4.gbw exists
Trying to determine its content:
     ... Fine, the file contains calculation information
     ... Fine, the calculation information was read
     ... Fine, the file contains a basis set
     ... Fine, the basis set was read
     ... Fine, the file contains a geometry
     ... Fine, the geometry was read
     ... The file does not contain orbitals - skipping AutoStart


           ************************************************************
           *        Program running with 8 parallel MPI-processes     *
           *              working on a common directory               *
           ************************************************************
------------------------------------------------------------------------------
                           ORCA GTO INTEGRAL CALCULATION
------------------------------------------------------------------------------

                         BASIS SET STATISTICS AND STARTUP INFO

 # of primitive gaussian shells          ...  138
 # of primitive gaussian functions       ...  266
 # of contracted shells                  ...   56
 # of contracted basis functions         ...  112
 Highest angular momentum                ...    3
 Maximum contraction depth               ...    6
 Integral package used                   ... LIBINT
 Integral threshhold            Thresh   ...  2.500e-11
 Primitive cut-off              TCut     ...  2.500e-12


------------------------------ INTEGRAL EVALUATION ----------------------------


 * One electron integrals 
 Pre-screening matrix                    ... done
 Shell pair data                         ... done (   0.001 sec)



           ************************************************************
           *        Program running with 8 parallel MPI-processes     *
           *              working on a common directory               *
           ************************************************************
-------------------------------------------------------------------------------
                                 ORCA SCF
-------------------------------------------------------------------------------

------------
SCF SETTINGS
------------
Hamiltonian:
 Density Functional     Method          .... DFT(GTOs)
 Exchange Functional    Exchange        .... B88
   X-Alpha parameter    XAlpha          ....  0.666667
   Becke's b parameter  XBeta           ....  0.004200
 Correlation Functional Correlation     .... LYP
 LDA part of GGA corr.  LDAOpt          .... VWN-5
 Gradients option       PostSCFGGA      .... off
 Hybrid DFT is turned on
   Fraction HF Exchange ScalHFX         ....  0.200000
   Scaling of DF-GGA-X  ScalDFX         ....  0.720000
   Scaling of DF-GGA-C  ScalDFC         ....  0.810000
   Scaling of DF-LDA-C  ScalLDAC        ....  1.000000
   Perturbative correction              ....  0.000000
   Density functional embedding theory  .... OFF
   NL short-range parameter             ....  4.800000


General Settings:
 Integral files         IntName         .... fecl4
 Hartree-Fock type      HFTyp           .... UHF
 Total Charge           Charge          ....    0
 Multiplicity           Mult            ....    1
 Number of Electrons    NEL             ....   94
 Basis Dimension        Dim             ....  112
 Nuclear Repulsion      ENuc            ....    638.4620901932 Eh

Convergence Acceleration:
 DIIS                   CNVDIIS         .... on
   Start iteration      DIISMaxIt       ....     0
   Startup error        DIISStart       ....  0.200000
   # of expansion vecs  DIISMaxEq       ....     5
   Bias factor          DIISBfac        ....   1.050
   Max. coefficient     DIISMaxC        ....  10.000
 Newton-Raphson         CNVNR           .... off
 SOSCF                  CNVSOSCF        .... off
 Level Shifting         CNVShift        .... on
   Level shift para.    LevelShift      ....    0.2500
   Turn off err/grad.   ShiftErr        ....    0.0000
 Zerner damping         CNVZerner       .... off
 Static damping         CNVDamp         .... on
   Fraction old density DampFac         ....    0.8500
   Max. Damping (<1)    DampMax         ....    0.9800
   Min. Damping (>=0)   DampMin         ....    0.0000
   Turn off err/grad.   DampErr         ....    0.0300
 Fernandez-Rico         CNVRico         .... off

SCF Procedure:
 Maximum # iterations   MaxIter         ....   125
 SCF integral mode      SCFMode         .... Direct
   Integral package                     .... LIBINT
 Reset frequency        DirectResetFreq ....    20
 Integral Threshold     Thresh          ....  2.500e-11 Eh
 Primitive CutOff       TCut            ....  2.500e-12 Eh

Convergence Tolerance:
 Convergence Check Mode ConvCheckMode   .... Total+1el-Energy
 Convergence forced     ConvForced      .... 0
 Energy Change          TolE            ....  1.000e-08 Eh
 1-El. energy change                    ....  1.000e-05 Eh
 DIIS Error             TolErr          ....  5.000e-07


Diagonalization of the overlap matrix:
Smallest eigenvalue                        ... 6.281e-03
Time for diagonalization                   ...    0.004 sec
Threshold for overlap eigenvalues          ... 1.000e-08
Number of eigenvalues below threshold      ... 0
Time for construction of square roots      ...    0.002 sec
Total time needed                          ...    0.006 sec

-------------------
DFT GRID GENERATION
-------------------

General Integration Accuracy     IntAcc      ...  5.010
Radial Grid Type                 RadialGrid  ... Gauss-Chebyshev
Angular Grid (max. acc.)         AngularGrid ... Lebedev-434
Angular grid pruning method      GridPruning ... 3 (G Style)
Weight generation scheme         WeightScheme... Becke
Basis function cutoff            BFCut       ...    1.0000e-11
Integration weight cutoff        WCut        ...    1.0000e-14
Grids for H and He will be reduced by one unit

SpecialGrid => Setting IntAcc for atom type =  26 to   7.0000
# of grid points (after initial pruning)     ...  72102 (   0.0 sec)
# of grid points (after weights+screening)   ...  71099 (   0.0 sec)
nearest neighbour list constructed           ...    0.0 sec
Grid point re-assignment to atoms done       ...    0.0 sec
Grid point division into batches done        ...    0.9 sec
Reduced shell lists constructed in    1.0 sec

Total number of grid points                  ...    71099
Total number of batches                      ...     1113
Average number of points per batch           ...       63
Average number of grid points per atom       ...    14220
Average number of shells per batch           ...    32.89 (58.73%)
Average number of basis functions per batch  ...    79.91 (71.35%)
Average number of large shells per batch     ...    29.30 (89.09%)
Average number of large basis fcns per batch ...    72.48 (90.70%)
Maximum spatial batch extension              ...   2.33,  2.58,  2.31 au
Average spatial batch extension              ...   0.14,  0.15,  0.14 au

Time for grid setup =    1.037 sec

------------------------------
INITIAL GUESS: MODEL POTENTIAL
------------------------------
Loading Hartree-Fock densities                     ... done
Calculating cut-offs                               ... done
Setting up the integral package                    ... done
Initializing the effective Hamiltonian             ... done
Starting the Coulomb interaction                   ... done (   0.0 sec)
Reading the grid                                   ... done
Mapping shells                                     ... done
Starting the XC term evaluation                    ... done (   0.0 sec)
  promolecular density results
     # of electrons  =     94.000016404
     EX              =   -164.439562928
     EC              =     -4.024367782
     EX+EC           =   -168.463930710
Transforming the Hamiltonian                       ... done (   0.0 sec)
Diagonalizing the Hamiltonian                      ... done (   0.0 sec)
Back transforming the eigenvectors                 ... done (   0.0 sec)
Now organizing SCF variables                       ... done
                      ------------------
                      INITIAL GUESS DONE (   1.2 sec)
                      ------------------
--------------
SCF ITERATIONS
--------------
ITER       Energy         Delta-E        Max-DP      RMS-DP      [F,P]     Damp
               ***  Starting incremental Fock matrix formation  ***
  0  -3103.6564983845   0.000000000000 0.08021516  0.00188287  0.5040688 0.8500
  1  -3103.9491898058  -0.292691421370 0.03973283  0.00128276  0.4302366 0.8500
                               ***Turning on DIIS***
  2  -3103.9108909917   0.038298814175 0.00768919  0.00037057  0.3659476 0.8500
  3  -3103.9368056517  -0.025914660028 0.01969805  0.00041233  0.3103805 0.8500
  4  -3103.9825294472  -0.045723795462 0.00920606  0.00020160  0.2636058 0.8500
  5  -3104.0078660591  -0.025336611932 0.00412393  0.00019910  0.2243496 0.8500
  6  -3104.0244086877  -0.016542628634 0.00368932  0.00016940  0.1909125 0.8500
  7  -3104.0384092063  -0.014000518544 0.00307533  0.00012198  0.1623063 0.8500
  8  -3104.0529939159  -0.014584709598 0.00709359  0.00017317  0.1378878 0.8500
  9  -3104.0687551064  -0.015761190508 0.00363134  0.00010178  0.1169916 0.8500
 10  -3104.0796512841  -0.010896177765 0.00176374  0.00008498  0.0994961 0.8500
 11  -3104.0885673903  -0.008916106156 0.00283238  0.00010219  0.0846503 0.8500
 12  -3104.0957037891  -0.007136398808 0.00184257  0.00007184  0.0719805 0.8500
 13  -3104.1019598005  -0.006256011422 0.00192678  0.00005431  0.0611649 0.8500
 14  -3104.1079355806  -0.005975780038 0.00218047  0.00005567  0.0519197 0.8500
 15  -3104.1128687298  -0.004933149231 0.00106523  0.00003932  0.0441316 0.8500
 16  -3104.1169319253  -0.004063195513 0.00121724  0.00004395  0.0375367 0.8500
 17  -3104.1203635501  -0.003431624802 0.00111522  0.00003885  0.0319408 0.8500
 18  -3104.1232511246  -0.002887574479 0.00401513  0.00017454  0.0271445 0.0000
 19  -3104.1400625923  -0.016811467730 0.00385063  0.00010685  0.0042135 0.0000
               *** Restarting incremental Fock matrix formation ***
                                   *** Resetting DIIS ***
 20  -3104.1398584073   0.000204185026 0.00931529  0.00030953  0.0123264 0.0000
 21  -3104.1354010453   0.004457361999 0.00051642  0.00001588  0.0542572 0.8500
 22  -3104.1359687964  -0.000567751089 0.00065106  0.00002026  0.0501253 0.8500
 23  -3104.1366546194  -0.000685823024 0.00063754  0.00002117  0.0451413 0.8500
 24  -3104.1373114383  -0.000656818919 0.00057925  0.00002052  0.0401157 0.8500
 25  -3104.1378853193  -0.000573880919 0.00136873  0.00004622  0.0353558 0.8500
 26  -3104.1388353603  -0.000950041010 0.00623441  0.00024920  0.0256794 0.0000
 27  -3104.1389358914  -0.000100531158 0.00319180  0.00008068  0.0243428 0.0000
 28  -3104.1399163615  -0.000980470095 0.00108264  0.00003723  0.0097774 0.0000
 29  -3104.1401137576  -0.000197396105 0.00031227  0.00001313  0.0033558 0.0000
 30  -3104.1401395915  -0.000025833907 0.00017746  0.00000620  0.0010853 0.0000
 31  -3104.1401432151  -0.000003623612 0.00015837  0.00000308  0.0003774 0.0000
 32  -3104.1401436734  -0.000000458223 0.00008097  0.00000156  0.0001729 0.0000
 33  -3104.1401437734  -0.000000100001 0.00004397  0.00000081  0.0000907 0.0000
 34  -3104.1401437940  -0.000000020680 0.00001741  0.00000048  0.0000595 0.0000
 35  -3104.1401438031  -0.000000009055 0.00000773  0.00000035  0.0000402 0.0000
 36  -3104.1401438070  -0.000000003939 0.00000730  0.00000031  0.0000264 0.0000
 37  -3104.1401438101  -0.000000003067 0.00000583  0.00000024  0.0000165 0.0000
 38  -3104.1401438116  -0.000000001486 0.00000381  0.00000017  0.0000095 0.0000
 39  -3104.1401438128  -0.000000001238 0.00000224  0.00000014  0.0000064 0.0000
               *** Restarting incremental Fock matrix formation ***
                                   *** Resetting DIIS ***
 40  -3104.1401438157  -0.000000002867 0.00000310  0.00000014  0.0000043 0.0000
 41  -3104.1401438146   0.000000001124 0.00000138  0.00000007  0.0000196 0.0000
 42  -3104.1401438157  -0.000000001093 0.00000086  0.00000005  0.0000098 0.0000
 43  -3104.1401438164  -0.000000000695 0.00000083  0.00000006  0.0000055 0.0000
 44  -3104.1401438173  -0.000000000925 0.00000118  0.00000008  0.0000021 0.0000
                 **** Energy Check signals convergence ****

               *****************************************************
               *                     SUCCESS                       *
               *           SCF CONVERGED AFTER  45 CYCLES          *
               *****************************************************


----------------
TOTAL SCF ENERGY
----------------

Total Energy       :        -3104.14014382 Eh          -84467.94758 eV

Components:
Nuclear Repulsion  :          638.46209019 Eh           17373.43672 eV
Electronic Energy  :        -3742.60223401 Eh         -101841.38430 eV
One Electron Energy:        -5558.51695614 Eh         -151254.93603 eV
Two Electron Energy:         1815.91472213 Eh           49413.55173 eV

Virial components:
Potential Energy   :        -6202.79577018 Eh         -168786.65385 eV
Kinetic Energy     :         3098.65562636 Eh           84318.70627 eV
Virial Ratio       :            2.00176997


DFT components:
N(Alpha)           :       47.000006846841 electrons
N(Beta)            :       47.000006846841 electrons
N(Total)           :       94.000013693683 electrons
E(X)               :     -130.600337710306 Eh       
E(C)               :       -4.700110874166 Eh       
E(XC)              :     -135.300448584471 Eh       
DFET-embed. en.    :        0.000000000000 Eh       

---------------
SCF CONVERGENCE
---------------

  Last Energy change         ...   -4.9067e-10  Tolerance :   1.0000e-08
  Last MAX-Density change    ...    7.4694e-07  Tolerance :   1.0000e-07
  Last RMS-Density change    ...    4.9707e-08  Tolerance :   5.0000e-09
  Last DIIS Error            ...    1.7425e-06  Tolerance :   5.0000e-07

             **** THE GBW FILE WAS UPDATED (fecl4.gbw) ****
             **** DENSITY FILE WAS UPDATED (fecl4.scfp) ****
             **** ENERGY FILE WAS UPDATED (fecl4.en.tmp) ****
----------------------
UHF SPIN CONTAMINATION
----------------------

Warning: in a DFT calculation there is little theoretical justification to 
         calculate <S**2> as in Hartree-Fock theory. We will do it anyways
         but you should keep in mind that the values have only limited relevance

Expectation value of <S**2>     :     0.000000
Ideal value S*(S+1) for S=0.0   :     0.000000
Deviation                       :     0.000000

             **** THE GBW FILE WAS UPDATED (fecl4.gbw) ****
             **** DENSITY FILE WAS UPDATED (fecl4.scfp) ****
----------------
ORBITAL ENERGIES
----------------
                 SPIN UP ORBITALS
  NO   OCC          E(Eh)            E(eV) 
   0   1.0000    -256.241744     -6972.6923 
   1   1.0000    -101.573122     -2763.9452 
   2   1.0000    -101.573107     -2763.9448 
   3   1.0000    -101.572801     -2763.9364 
   4   1.0000    -101.572741     -2763.9348 
   5   1.0000     -30.185683      -821.3942 
   6   1.0000     -26.049176      -708.8341 
   7   1.0000     -26.048045      -708.8033 
   8   1.0000     -26.047551      -708.7899 
   9   1.0000      -9.502648      -258.5802 
  10   1.0000      -9.502617      -258.5794 
  11   1.0000      -9.502266      -258.5698 
  12   1.0000      -9.502194      -258.5678 
  13   1.0000      -7.264418      -197.6749 
  14   1.0000      -7.264401      -197.6744 
  15   1.0000      -7.264082      -197.6657 
  16   1.0000      -7.264019      -197.6640 
  17   1.0000      -7.256816      -197.4680 
  18   1.0000      -7.256803      -197.4677 
  19   1.0000      -7.256647      -197.4634 
  20   1.0000      -7.256621      -197.4627 
  21   1.0000      -7.256380      -197.4561 
  22   1.0000      -7.256304      -197.4541 
  23   1.0000      -7.256304      -197.4541 
  24   1.0000      -7.256241      -197.4523 
  25   1.0000      -3.604886       -98.0939 
  26   1.0000      -2.375431       -64.6388 
  27   1.0000      -2.374090       -64.6023 
  28   1.0000      -2.373325       -64.5815 
  29   1.0000      -0.843834       -22.9619 
  30   1.0000      -0.836634       -22.7660 
  31   1.0000      -0.835950       -22.7474 
  32   1.0000      -0.835082       -22.7237 
  33   1.0000      -0.434406       -11.8208 
  34   1.0000      -0.431632       -11.7453 
  35   1.0000      -0.423642       -11.5279 
  36   1.0000      -0.415339       -11.3019 
  37   1.0000      -0.412064       -11.2128 
  38   1.0000      -0.411448       -11.1961 
  39   1.0000      -0.374590       -10.1931 
  40   1.0000      -0.374209       -10.1827 
  41   1.0000      -0.371287       -10.1032 
  42   1.0000      -0.346301        -9.4233 
  43   1.0000      -0.346081        -9.4173 
  44   1.0000      -0.344370        -9.3708 
  45   1.0000      -0.342843        -9.3292 
  46   1.0000      -0.342439        -9.3182 
  47   0.0000      -0.249129        -6.7791 
  48   0.0000      -0.248415        -6.7597 
  49   0.0000      -0.240772        -6.5517 
  50   0.0000      -0.023201        -0.6313 
  51   0.0000       0.034642         0.9427 
  52   0.0000       0.045275         1.2320 
  53   0.0000       0.046230         1.2580 
  54   0.0000       0.085075         2.3150 
  55   0.0000       0.159808         4.3486 
  56   0.0000       0.175058         4.7636 
  57   0.0000       0.176914         4.8141 
  58   0.0000       0.380103        10.3431 
  59   0.0000       0.384223        10.4552 
  60   0.0000       0.388044        10.5592 
  61   0.0000       0.388734        10.5780 
  62   0.0000       0.396529        10.7901 
  63   0.0000       0.417044        11.3484 
  64   0.0000       0.484242        13.1769 
  65   0.0000       0.486792        13.2463 
  66   0.0000       0.501276        13.6404 
  67   0.0000       0.554951        15.1010 
  68   0.0000       0.556926        15.1547 
  69   0.0000       0.570329        15.5195 
  70   0.0000       0.601656        16.3719 
  71   0.0000       0.606130        16.4936 
  72   0.0000       0.630960        17.1693 
  73   0.0000       0.724865        19.7246 
  74   0.0000       0.902424        24.5562 
  75   0.0000       0.904979        24.6257 
  76   0.0000       1.012103        27.5407 
  77   0.0000       1.013587        27.5811 
  78   0.0000       1.024197        27.8698 
  79   0.0000       1.623938        44.1896 
  80   0.0000       1.654571        45.0232 
  81   0.0000       1.656818        45.0843 
  82   0.0000       3.049171        82.9722 
  83   0.0000       4.843669       131.8029 
  84   0.0000       4.845814       131.8613 
  85   0.0000       4.937623       134.3596 
  86   0.0000       4.938750       134.3902 
  87   0.0000       4.949667       134.6873 
  88   0.0000       5.890658       160.2930 
  89   0.0000       5.890896       160.2994 
  90   0.0000       5.891195       160.3076 
  91   0.0000       5.891749       160.3226 
  92   0.0000       5.893101       160.3594 
  93   0.0000       5.893202       160.3622 
  94   0.0000       5.898881       160.5167 
  95   0.0000       9.151024       249.0120 
  96   0.0000       9.175433       249.6762 
  97   0.0000       9.176676       249.7101 
  98   0.0000      25.277021       687.8227 
  99   0.0000     167.098199      4546.9731 
 100   0.0000     216.150086      5881.7429 
 101   0.0000     216.167096      5882.2057 
 102   0.0000     216.168414      5882.2416 
 103   0.0000     721.607062     19635.9264 
 104   0.0000    2453.953979     66775.4826 
 105   0.0000    8071.337968    219632.2720 
 106   0.0000   28473.479942    774802.7794 
 107   0.0000   117240.472035   3190275.4346 
 108   0.0000   597780.692324   16266439.6080 
 109   0.0000   2211674.452690   60182721.4881 
 110   0.0000   6563629.152649   178605429.3682 
 111   0.0000   18768448.879348   510715458.2792 

                 SPIN DOWN ORBITALS
  NO   OCC          E(Eh)            E(eV) 
   0   1.0000    -256.241744     -6972.6923 
   1   1.0000    -101.573122     -2763.9452 
   2   1.0000    -101.573107     -2763.9448 
   3   1.0000    -101.572801     -2763.9364 
   4   1.0000    -101.572741     -2763.9348 
   5   1.0000     -30.185683      -821.3942 
   6   1.0000     -26.049176      -708.8341 
   7   1.0000     -26.048045      -708.8033 
   8   1.0000     -26.047551      -708.7899 
   9   1.0000      -9.502648      -258.5802 
  10   1.0000      -9.502617      -258.5794 
  11   1.0000      -9.502266      -258.5698 
  12   1.0000      -9.502194      -258.5678 
  13   1.0000      -7.264418      -197.6749 
  14   1.0000      -7.264401      -197.6744 
  15   1.0000      -7.264082      -197.6657 
  16   1.0000      -7.264019      -197.6640 
  17   1.0000      -7.256816      -197.4680 
  18   1.0000      -7.256803      -197.4677 
  19   1.0000      -7.256647      -197.4634 
  20   1.0000      -7.256621      -197.4627 
  21   1.0000      -7.256380      -197.4561 
  22   1.0000      -7.256304      -197.4541 
  23   1.0000      -7.256304      -197.4541 
  24   1.0000      -7.256241      -197.4523 
  25   1.0000      -3.604886       -98.0939 
  26   1.0000      -2.375431       -64.6388 
  27   1.0000      -2.374090       -64.6023 
  28   1.0000      -2.373325       -64.5815 
  29   1.0000      -0.843834       -22.9619 
  30   1.0000      -0.836634       -22.7660 
  31   1.0000      -0.835950       -22.7474 
  32   1.0000      -0.835082       -22.7237 
  33   1.0000      -0.434406       -11.8208 
  34   1.0000      -0.431632       -11.7453 
  35   1.0000      -0.423642       -11.5279 
  36   1.0000      -0.415339       -11.3019 
  37   1.0000      -0.412064       -11.2128 
  38   1.0000      -0.411448       -11.1961 
  39   1.0000      -0.374590       -10.1931 
  40   1.0000      -0.374209       -10.1827 
  41   1.0000      -0.371287       -10.1032 
  42   1.0000      -0.346301        -9.4233 
  43   1.0000      -0.346081        -9.4173 
  44   1.0000      -0.344370        -9.3708 
  45   1.0000      -0.342843        -9.3292 
  46   1.0000      -0.342439        -9.3182 
  47   0.0000      -0.249129        -6.7791 
  48   0.0000      -0.248415        -6.7597 
  49   0.0000      -0.240772        -6.5517 
  50   0.0000      -0.023201        -0.6313 
  51   0.0000       0.034642         0.9427 
  52   0.0000       0.045275         1.2320 
  53   0.0000       0.046230         1.2580 
  54   0.0000       0.085075         2.3150 
  55   0.0000       0.159808         4.3486 
  56   0.0000       0.175058         4.7636 
  57   0.0000       0.176914         4.8141 
  58   0.0000       0.380103        10.3431 
  59   0.0000       0.384223        10.4552 
  60   0.0000       0.388044        10.5592 
  61   0.0000       0.388734        10.5780 
  62   0.0000       0.396529        10.7901 
  63   0.0000       0.417044        11.3484 
  64   0.0000       0.484242        13.1769 
  65   0.0000       0.486792        13.2463 
  66   0.0000       0.501276        13.6404 
  67   0.0000       0.554951        15.1010 
  68   0.0000       0.556926        15.1547 
  69   0.0000       0.570329        15.5195 
  70   0.0000       0.601656        16.3719 
  71   0.0000       0.606130        16.4936 
  72   0.0000       0.630960        17.1693 
  73   0.0000       0.724865        19.7246 
  74   0.0000       0.902424        24.5562 
  75   0.0000       0.904979        24.6257 
  76   0.0000       1.012103        27.5407 
  77   0.0000       1.013587        27.5811 
  78   0.0000       1.024197        27.8698 
  79   0.0000       1.623938        44.1896 
  80   0.0000       1.654571        45.0232 
  81   0.0000       1.656818        45.0843 
  82   0.0000       3.049171        82.9722 
  83   0.0000       4.843669       131.8029 
  84   0.0000       4.845814       131.8613 
  85   0.0000       4.937623       134.3596 
  86   0.0000       4.938750       134.3902 
  87   0.0000       4.949667       134.6873 
  88   0.0000       5.890658       160.2930 
  89   0.0000       5.890896       160.2994 
  90   0.0000       5.891195       160.3076 
  91   0.0000       5.891749       160.3226 
  92   0.0000       5.893101       160.3594 
  93   0.0000       5.893202       160.3622 
  94   0.0000       5.898881       160.5167 
  95   0.0000       9.151024       249.0120 
  96   0.0000       9.175433       249.6762 
  97   0.0000       9.176676       249.7101 
  98   0.0000      25.277021       687.8227 
  99   0.0000     167.098199      4546.9731 
 100   0.0000     216.150086      5881.7429 
 101   0.0000     216.167096      5882.2057 
 102   0.0000     216.168414      5882.2416 
 103   0.0000     721.607062     19635.9264 
 104   0.0000    2453.953979     66775.4826 
 105   0.0000    8071.337968    219632.2720 
 106   0.0000   28473.479942    774802.7794 
 107   0.0000   117240.472035   3190275.4346 
 108   0.0000   597780.692324   16266439.6080 
 109   0.0000   2211674.452690   60182721.4881 
 110   0.0000   6563629.152649   178605429.3682 
 111   0.0000   18768448.879348   510715458.2792 

                    ********************************
                    * MULLIKEN POPULATION ANALYSIS *
                    ********************************

--------------------------------------------
MULLIKEN ATOMIC CHARGES AND SPIN POPULATIONS
--------------------------------------------
   0 Fe:    0.403124    0.000000
   1 Cl:   -0.101694    0.000000
   2 Cl:   -0.100821    0.000000
   3 Cl:   -0.100331    0.000000
   4 Cl:   -0.100277    0.000000
Sum of atomic charges         :    0.0000000
Sum of atomic spin populations:    0.0000000

-----------------------------------------------------
MULLIKEN REDUCED ORBITAL CHARGES AND SPIN POPULATIONS
-----------------------------------------------------
CHARGE
  0 Fes       :     6.516060  s :     6.516060
      pz      :     4.262406  p :    12.750406
      px      :     4.249207
      py      :     4.238793
      dz2     :     1.098166  d :     6.330319
      dxz     :     1.589275
      dyz     :     1.175352
      dx2y2   :     0.863103
      dxy     :     1.604424
      f0      :     0.000012  f :     0.000092
      f+1     :     0.000016
      f-1     :     0.000018
      f+2     :     0.000009
      f-2     :     0.000010
      f+3     :     0.000018
      f-3     :     0.000009
  1 Cls       :     5.970207  s :     5.970207
      pz      :     3.873772  p :    11.131487
      px      :     3.385652
      py      :     3.872063
  2 Cls       :     5.970050  s :     5.970050
      pz      :     3.874014  p :    11.130771
      px      :     3.791324
      py      :     3.465432
  3 Cls       :     5.969755  s :     5.969755
      pz      :     3.501731  p :    11.130576
      px      :     3.834430
      py      :     3.794416
  4 Cls       :     5.969743  s :     5.969743
      pz      :     3.501757  p :    11.130534
      px      :     3.834443
      py      :     3.794333

SPIN
  0 Fes       :     0.000000  s :     0.000000
      pz      :     0.000000  p :     0.000000
      px      :     0.000000
      py      :     0.000000
      dz2     :     0.000000  d :     0.000000
      dxz     :     0.000000
      dyz     :     0.000000
      dx2y2   :     0.000000
      dxy     :     0.000000
      f0      :     0.000000  f :     0.000000
      f+1     :     0.000000
      f-1     :     0.000000
      f+2     :     0.000000
      f-2     :     0.000000
      f+3     :     0.000000
      f-3     :     0.000000
  1 Cls       :     0.000000  s :     0.000000
      pz      :     0.000000  p :     0.000000
      px      :     0.000000
      py      :     0.000000
  2 Cls       :     0.000000  s :     0.000000
      pz      :     0.000000  p :     0.000000
      px      :     0.000000
      py      :     0.000000
  3 Cls       :     0.000000  s :     0.000000
      pz      :     0.000000  p :     0.000000
      px      :     0.000000
      py      :     0.000000
  4 Cls       :     0.000000  s :     0.000000
      pz      :     0.000000  p :     0.000000
      px      :     0.000000
      py      :     0.000000


                     *******************************
                     * LOEWDIN POPULATION ANALYSIS *
                     *******************************

-------------------------------------------
LOEWDIN ATOMIC CHARGES AND SPIN POPULATIONS
-------------------------------------------
   0 Fe:   -0.018010    0.000000
   1 Cl:    0.003375    0.000000
   2 Cl:    0.004192    0.000000
   3 Cl:    0.005191    0.000000
   4 Cl:    0.005253    0.000000

----------------------------------------------------
LOEWDIN REDUCED ORBITAL CHARGES AND SPIN POPULATIONS
----------------------------------------------------
CHARGE
  0 Fes       :     6.496074  s :     6.496074
      pz      :     4.392979  p :    13.126153
      px      :     4.374177
      py      :     4.358996
      dz2     :     1.116022  d :     6.395681
      dxz     :     1.597687
      dyz     :     1.188404
      dx2y2   :     0.879963
      dxy     :     1.613604
      f0      :     0.000014  f :     0.000102
      f+1     :     0.000018
      f-1     :     0.000020
      f+2     :     0.000010
      f-2     :     0.000011
      f+3     :     0.000019
      f-3     :     0.000011
  1 Cls       :     5.855931  s :     5.855931
      pz      :     3.867089  p :    11.140694
      px      :     3.409642
      py      :     3.863963
  2 Cls       :     5.855709  s :     5.855709
      pz      :     3.867266  p :    11.140099
      px      :     3.787434
      py      :     3.485400
  3 Cls       :     5.854873  s :     5.854873
      pz      :     3.516505  p :    11.139936
      px      :     3.830306
      py      :     3.793125
  4 Cls       :     5.854847  s :     5.854847
      pz      :     3.516538  p :    11.139900
      px      :     3.830319
      py      :     3.793044

SPIN
  0 Fes       :     0.000000  s :     0.000000
      pz      :     0.000000  p :     0.000000
      px      :     0.000000
      py      :     0.000000
      dz2     :     0.000000  d :     0.000000
      dxz     :     0.000000
      dyz     :     0.000000
      dx2y2   :     0.000000
      dxy     :     0.000000
      f0      :     0.000000  f :     0.000000
      f+1     :     0.000000
      f-1     :     0.000000
      f+2     :     0.000000
      f-2     :     0.000000
      f+3     :     0.000000
      f-3     :     0.000000
  1 Cls       :     0.000000  s :     0.000000
      pz      :     0.000000  p :     0.000000
      px      :     0.000000
      py      :     0.000000
  2 Cls       :     0.000000  s :     0.000000
      pz      :     0.000000  p :     0.000000
      px      :     0.000000
      py      :     0.000000
  3 Cls       :     0.000000  s :     0.000000
      pz      :     0.000000  p :     0.000000
      px      :     0.000000
      py      :     0.000000
  4 Cls       :     0.000000  s :     0.000000
      pz      :     0.000000  p :     0.000000
      px      :     0.000000
      py      :     0.000000


                      *****************************
                      * MAYER POPULATION ANALYSIS *
                      *****************************

  NA   - Mulliken gross atomic population
  ZA   - Total nuclear charge
  QA   - Mulliken gross atomic charge
  VA   - Mayer's total valence
  BVA  - Mayer's bonded valence
  FA   - Mayer's free valence

  ATOM       NA         ZA         QA         VA         BVA        FA
  0 Fe    25.5969    26.0000     0.4031     4.8418     4.8418    -0.0000
  1 Cl    17.1017    17.0000    -0.1017     1.3348     1.3348     0.0000
  2 Cl    17.1008    17.0000    -0.1008     1.3357     1.3357     0.0000
  3 Cl    17.1003    17.0000    -0.1003     1.3379     1.3379    -0.0000
  4 Cl    17.1003    17.0000    -0.1003     1.3379     1.3379    -0.0000

  Mayer bond orders larger than 0.100000
B(  0-Fe,  1-Cl) :   1.2093 B(  0-Fe,  2-Cl) :   1.2103 B(  0-Fe,  3-Cl) :   1.2111 
B(  0-Fe,  4-Cl) :   1.2111 

-------
TIMINGS
-------

Total SCF time: 0 days 0 hours 0 min 15 sec 

Total time                  ....      15.077 sec
Sum of individual times     ....      14.844 sec  ( 98.5%)

Fock matrix formation       ....      13.445 sec  ( 89.2%)
  XC integration            ....       2.606 sec  ( 19.4% of F)
    Basis function eval.    ....       0.840 sec  ( 32.2% of XC)
    Density eval.           ....       0.550 sec  ( 21.1% of XC)
    XC-Functional eval.     ....       0.319 sec  ( 12.2% of XC)
    XC-Potential eval.      ....       0.570 sec  ( 21.9% of XC)
Diagonalization             ....       0.153 sec  (  1.0%)
Density matrix formation    ....       0.016 sec  (  0.1%)
Population analysis         ....       0.004 sec  (  0.0%)
Initial guess               ....       0.141 sec  (  0.9%)
Orbital Transformation      ....       0.000 sec  (  0.0%)
Orbital Orthonormalization  ....       0.000 sec  (  0.0%)
DIIS solution               ....       0.048 sec  (  0.3%)
Grid generation             ....       1.037 sec  (  6.9%)

-------------------------   --------------------
FINAL SINGLE POINT ENERGY     -3104.140143817774
-------------------------   --------------------


                            ***************************************
                            *     ORCA property calculations      *
                            ***************************************

                                    ---------------------
                                    Active property flags
                                    ---------------------
   (+) Dipole Moment
   (+) Nuclear properties (Hyperfine,Quadrupole)


------------------------------------------------------------------------------
                       ORCA ELECTRIC PROPERTIES CALCULATION
------------------------------------------------------------------------------

Dipole Moment Calculation                       ... on
Quadrupole Moment Calculation                   ... off
Polarizability Calculation                      ... off
GBWName                                         ... fecl4.gbw
Electron density file                           ... fecl4.scfp
The origin for moment calculation is the CENTER OF MASS  = (-0.001081, -0.002056  0.000015)

-------------
DIPOLE MOMENT
-------------
                                X             Y             Z
Electronic contribution:     -0.01786      -0.03023       0.00031
Nuclear contribution   :      0.00733       0.01394      -0.00010
                        -----------------------------------------
Total Dipole Moment    :     -0.01053      -0.01628       0.00021
                        -----------------------------------------
Magnitude (a.u.)       :      0.01939
Magnitude (Debye)      :      0.04929



--------------------
Rotational spectrum 
--------------------
 
Rotational constants in cm-1:     0.033997     0.033750     0.029753 
Rotational constants in MHz :  1019.212481  1011.800376   891.974021 

 Dipole components along the rotational axes: 
x,y,z [a.u.] :     0.000219    -0.000651     0.019381 
x,y,z [Debye]:     0.000557    -0.001655     0.049262 

 


           ************************************************************
           *        Program running with 8 parallel MPI-processes     *
           *              working on a common directory               *
           ************************************************************
------------------------------------------------------------------------------
                                ORCA EPR/NMR CALCULATION
------------------------------------------------------------------------------

GBWName                      ... fecl4.gbw
Electron density file        ... fecl4.scfp
Spin density file            ... fecl4.scfr
Multiplicity                 ... 1
g-tensor                     ... 0
NMR chemical shifts          ... 0
Number of nuclei for epr/nmr ... 1
   Nucleus:   0Fe
       Hyperfine : Isotope=   57 I=   0.500 P=  17.280
       Quadrupole: Isotope=   57 I=   0.500 Q=   0.160
       Spin-Orbit: Zeff=  13.910
       Ncuelar Spin-Spin: Gn=   0.000
       rho(0)=Y f(grad)=Y a(iso)=N a(dip)=N a(orb)=N sigma(nmr)=N spin-spin(nmr)=all-N,DSO-N,PSO-N,FC-N,SD-N

-----------------------------------------
ELECTRIC AND MAGNETIC HYPERFINE STRUCTURE
-----------------------------------------

 -----------------------------------------------------------
 Nucleus   0Fe: A:ISTP=   57 I=  0.5 P= 17.2798 MHz/au**3
                Q:ISTP=   57 I=  0.5 Q=  0.1600 barn     
 -----------------------------------------------------------
 Raw EFG matrix (all values in a.u.**-3):
            -0.0107       0.1786      -0.0004
             0.1786       0.1056       0.0000
            -0.0004       0.0000      -0.0949

 V(El)      -0.1733      -0.1995       0.3728
 V(Nuc)      0.0784       0.0592      -0.1376
         ----------   ----------   ----------
 V(Tot)     -0.0949      -0.1403       0.2353 
 Orientation: 
  X      -0.0052137   -0.8092032   -0.5875057
  Y       0.0045877    0.5874881   -0.8092198
  Z       0.9999759   -0.0069143    0.0006494

Note: Tensor is right-handed

Moessbauer quadrupole splitting parameter (proper coordinate system)
 e**2qQ  =    8.845 MHz =    0.762 mm/s
 eta     =  0.193
 Delta-EQ=(1/2{e**2qQ}*sqrt(1+1/3*eta**2) =    4.450 MHz =    0.384 mm/s
 RHO(0)=  11816.542412540 a.u.**-3


------------------------------------------------------------------------------- 

Timings for individual modules:

Sum of individual times         ...       16.182 sec (=   0.270 min)
GTO integral calculation        ...        0.533 sec (=   0.009 min)   3.3 %
SCF iterations                  ...       15.301 sec (=   0.255 min)  94.6 %
EPR/NMR calculation             ...        0.348 sec (=   0.006 min)   2.1 %
                             ****ORCA TERMINATED NORMALLY****
TOTAL RUN TIME: 0 days 0 hours 0 minutes 16 seconds 529 msec
